default_name
 63090
  55.8311661  52.2275209  44.4248951  56.5313444  52.9510233  44.5048689
  55.9181920  51.7903316  43.5185881  55.8508877  51.6627552  45.2620034
  54.5181661  52.8655209  44.4208951  53.9965712  52.6291982  43.4934311
  53.6751661  52.3685209  45.5958951  53.3191585  51.3706441  45.3397710
  54.3325795  52.3076793  46.4631932  52.4871661  53.2625209  45.9218951
  52.8276062  54.2974736  45.9546723  51.7410660  53.1507500  45.1351653
  51.8431661  52.9215209  47.2528951  52.3101661  52.0335209  47.9728951
  50.7661661  53.6255209  47.5888951  50.2980501  53.4397009  48.4643605
  50.4212530  54.3427936  46.9670783  54.6461661  54.3865209  44.4748951
  53.9661661  55.0985209  43.7318951  55.5301661  54.6335209  45.2688951
  55.9189433  53.9114186  45.8584033  56.0231661  55.9965209  45.4288951
  55.2158192  56.7043676  45.2411632  56.5471661  56.2175209  46.8518951
  57.2006013  55.3955978  47.1444085  57.0985611  57.1562206  46.9058085
  55.4611661  56.2955209  47.8918951  54.9511661  57.5255209  48.2928951
  55.3461790  58.4374435  47.8451652  53.9471661  57.6005209  49.2548951
  53.5547720  58.5702668  49.5610333  53.4471661  56.4405209  49.8228951
  52.6634790  56.4955814  50.5784761  53.9451661  55.2075209  49.4288951
  53.5519522  54.2920522  49.8709358  54.9491661  55.1405209  48.4668951
  55.3428573  54.1726506  48.1565177  57.1241661  56.2955209  44.4148951
  58.0091661  55.4695209  44.1928951  56.8541661  57.4205209  43.7018951
  55.8021661  58.5765209  43.7228951  55.8588421  59.1543533  44.6453905
  54.7880165  58.1986631  43.5931918  56.2821661  59.3485209  42.5288951
  56.0302809  60.3984263  42.6783998  55.7618726  58.9724621  41.6480002
  57.7581661  59.1545209  42.3998951  58.2748110  59.8377767  43.0739416
  58.1235178  59.3020526  41.3836017  58.0021661  57.7075209  42.8378951
  57.9745612  57.0079048  42.0025068  59.3381661  57.5765209  43.5668951
  59.5061661  58.1275209  44.6568951  60.0701661  56.7845209  43.0638951
  59.8124610  56.2539649  42.2440185  61.3681661  56.5235209  43.6768951
  61.2344732  55.9424448  44.5893511  62.2661661  55.7335209  42.7208951
  61.7203531  54.8350778  42.4328198  62.4293237  56.3565377  41.8415034
  63.6061661  55.3415209  43.3188951  64.1419666  56.2522823  43.5863506
  63.4216568  54.7521044  44.2170301  64.4451661  54.5275209  42.3408951
  64.5957094  55.1061964  41.4295387  65.4114824  54.3070819  42.7944797
  63.7931661  53.2675209  41.9928951  63.3037086  53.2376396  41.1099241
  63.8021661  52.1745209  42.7508951  64.4311661  52.1665209  43.9198951
  64.9083099  52.9976058  44.2388493  64.4296882  51.3293862  44.4849641
  63.1771661  51.0825209  42.3358951  62.6976432  51.0857984  41.4469929
  63.1831129  50.2518152  42.9103439  62.0531661  57.8235209  44.0818951
  62.6571661  57.9065209  45.1538951  61.9561661  58.7665209  43.2918951
  61.4322926  58.6349982  42.4384564  62.6161661  60.0505209  43.5078951
  63.6794567  59.8745687  43.6708467  62.4521661  60.9485209  42.2838951
  61.3929847  61.1411887  42.1132671  62.9699869  61.8925977  42.4532499
  62.8762867  60.4537317  41.4101648  62.0711661  60.7465209  44.7518951
  62.7141661  61.6405209  45.3048951  60.9431661  60.2215209  45.1798951
  60.4932444  59.4083343  44.7844242  60.2821661  60.9095209  46.2838951
  60.8364235  61.8120421  46.5414869  58.8591661  61.3055209  45.8918951
  58.2819270  60.4095135  45.6637179  58.3893330  61.8391760  46.7180725
  58.7761661  62.3975209  44.4568951  60.2501661  60.0335209  47.5308951
  59.6821661  60.4205209  48.5518951  60.8491661  58.8965209  47.4628951
  61.3198757  58.6324807  46.6091887  60.8271661  57.9395209  48.5658951
  59.9609522  58.1441565  49.1950985  60.7151661  56.5135209  48.0298951
  61.5801512  56.2906311  47.4052184  60.6799556  55.8129416  48.8641907
  59.8053585  56.4179844  47.4372553  62.0701661  58.0795209  49.4378951
  62.8571661  57.1385209  49.5658951  62.3201661  59.2595209  49.9338951
  61.7019698  60.0162941  49.6784992  63.4711661  59.5615209  50.7778951
  63.8416966  58.6453276  51.2376735  64.5971661  60.1825209  49.9488951
  65.4393884  60.4005662  50.6055665  64.9058638  59.4644476  49.1891738
  64.1751661  61.4655209  49.2598951  64.0361661  62.5105209  49.8998951
  63.9721661  61.3965209  47.9498951  63.6896876  62.2222884  47.4415510
  64.1011242  60.5185710  47.4675317  63.0931661  60.4845209  51.9328951
  61.9871661  61.0285209  51.9598951  63.9681661  60.5705209  52.8558951
  64.8448002  60.0824298  52.7402271  63.7441661  61.3065209  54.0968951
  62.8844249  60.8893749  54.6212360  64.9731661  61.2225209  55.0218951
  65.8351541  61.6326748  54.4957290  64.7441661  62.0065209  56.3108951
  63.8825577  61.5966200  56.8378788  65.6273975  61.9300663  56.9450530
  64.5587349  63.0536808  56.0717885  65.2261661  59.8515209  55.3498951
  65.9917960  59.7964671  55.9264195  63.4191661  62.7665209  53.8078951
  62.4681661  63.3195209  54.3668951  64.1521661  63.3245209  52.9038951
  64.8775879  62.8063182  52.4292073  63.9891661  64.7395209  52.5828951
  64.1063976  65.3381967  53.4861909  65.0381661  65.1835209  51.5628951
  66.0145633  64.9131567  51.9649536  64.8552890  64.6227201  50.6462935
  65.0101661  66.6755209  51.2588951  64.0435988  66.9225430  50.8197727
  65.1354260  67.2241532  52.1923910  66.1021661  67.1005209  50.2968951
  66.9061661  66.2775209  49.8478951  66.1401661  68.3895209  49.9738951
  66.8475450  68.7266668  49.3366752  65.4614821  69.0257600  50.3672005
  62.5881661  65.0255209  52.0508951  61.9141661  65.9425209  52.5238951
  62.1501661  64.2715209  51.1208951  62.7381139  63.5332686  50.7611726
  60.8351661  64.4655209  50.5168951  60.7400426  65.4916972  50.1619120
  60.6441661  63.5175209  49.3298951  60.8097084  62.4940383  49.6663150
  59.6236905  63.6172955  48.9600648  61.5551661  63.8255209  48.2898951
  61.4196229  63.2212109  47.5563848  59.7221661  64.2465209  51.5358951
  58.7481661  65.0025209  51.5708951  59.8311661  63.2435209  52.3548951
  60.6457632  62.6505440  52.2848287  58.8121661  62.9055209  53.3438951
  57.8350726  62.8525910  52.8637015  59.1161661  61.5485209  53.9858951
  60.1454964  61.6476859  54.3304888  58.4565897  61.4230769  54.8445701
  59.0001661  60.3265209  53.0708951  59.6618925  60.4581802  52.2148081
  59.3921661  59.0615209  53.8258951  58.7305431  58.9289312  54.6819171
  59.3050192  58.2005159  53.1631911  60.4216223  59.1493327  54.1731840
  57.5841661  60.2095209  52.5148951  57.3429762  61.1050637  51.9422433
  57.5188966  59.3357526  51.8665356  56.8775854  60.1040426  53.3381307
  58.7251661  63.9825209  54.4228951  57.6281661  64.3655209  54.8358951
  59.8821661  64.5105209  54.8878951  60.7661430  64.1689076  54.5386322
  59.8981661  65.5365209  55.9258951  59.2529287  65.2361653  56.7514581
  61.3171661  65.7355209  56.4618951  61.9227997  65.8450206  55.5622746
  61.3372590  66.6665617  57.0283397  61.8821661  64.6035209  57.3218951
  61.8547665  63.6752455  56.7512333  63.3211661  64.9105209  57.7238951
  63.3493132  65.8384822  58.2950294  63.7097360  64.0961838  58.3354253
  63.9342339  65.0165946  56.8289109  61.0121661  64.3845209  58.5558951
  60.0005964  64.1222286  58.2460099  61.4289761  63.5757120  59.1560608
  60.9844714  65.2989358  59.1484974  59.3521661  66.8565209  55.3938951
  58.6041661  67.5505209  56.0878951  59.6211661  67.0775209  54.0718951
  60.1809654  66.4492363  53.5133410  59.1271661  68.3005209  53.4508951
  59.1250448  69.1093755  54.1815448  60.0191661  68.7065209  52.2738951
  60.1402523  67.8271828  51.6412800  59.4905312  69.4821270  51.7197467
  61.3861661  69.2235209  52.6888951  61.2442077  70.0900255  53.3347423
  61.8969049  68.4368664  53.2442533  62.2271661  69.6215209  51.4838951
  62.3392171  68.7600012  50.8256191  61.7243583  70.4256646  50.9466459
  63.5541661  70.0825209  51.8808951  63.7077620  70.2273482  52.8685857
  64.5581661  70.3195209  51.0408951  64.4021661  70.1435209  49.7328951
  63.5137786  69.8269309  49.3714558  65.1727136  70.3271612  49.1062912
  65.7241661  70.7355209  51.5088951  65.8467793  70.8713233  52.5021845
  66.4859796  70.9152622  50.8705911  57.6851661  68.1335209  52.9808951
  57.0181661  69.1145209  52.6428951  57.2841661  66.8775209  52.9848951
  57.8952257  66.1405102  53.3066415  55.9661661  66.5105209  52.4738951
  55.8822271  65.4252868  52.4162738  54.8661661  67.0375209  53.3968951
  55.0198817  68.1116597  53.5003197  53.9135344  66.8535035  52.9001756
  54.8521661  66.3925209  54.7748951  55.0793080  65.3324592  54.6618619
  55.6217885  66.8654439  55.3849176  53.4991661  66.5515209  55.4528951
  53.3889968  67.5912579  55.7609679  52.7213987  66.3026778  54.7309156
  53.3701661  65.6455209  56.6698951  53.5266536  64.6158030  56.3485024
  54.1426460  65.9231359  57.3870450  52.0271661  65.7675209  57.3128951
  51.3112512  65.5099070  56.6486658  51.9802313  65.1536146  58.1135299
  51.8821377  66.7215141  57.6111615  55.7591661  67.0415209  51.0578951
  54.6991661  67.5845209  50.7428951  56.7671661  66.8885209  50.2458951
  57.6029528  66.4504358  50.6059526  56.7741661  67.3625209  48.8658951
  55.7517283  67.5427994  48.5339015  57.5641661  68.6675209  48.7468951
  57.1154162  69.3816788  49.4373306  58.5872630  68.4560675  49.0577976
  57.5721661  69.2555209  47.3438951  58.0510963  68.5315552  46.6846528
  56.5345041  69.3924350  47.0395744  58.3051661  70.5835209  47.2548951
  59.3831661  70.6415209  46.6188951  57.7981661  71.5765209  47.8238951
  57.3571661  66.3095209  47.9258951  58.4411661  65.7765209  48.1768951
  56.6061661  65.9745209  46.8498951  55.6617260  66.3269312  46.7871330
  57.0851661  65.0885209  45.7948951  58.1309299  64.8364094  45.9707277
  56.2681661  63.7955209  45.7698951  56.2973667  63.3275883  46.7539101
  55.2351253  64.0228929  45.5067817  56.8551661  62.5875209  44.5628951
  57.0141661  65.7715209  44.4348951  55.9851661  65.7145209  43.7588951
  58.0721661  66.4645209  44.0188951  58.8510362  66.5102591  44.6602755
  58.1751661  67.1835209  42.7528951  57.4284770  66.8081811  42.0531277
  57.9371661  68.6785209  42.9658951  58.6900989  69.0732527  43.6480816
  58.0058555  69.1977152  42.0099562  56.3101661  69.0665209  43.6478951
  59.5381661  66.9645209  42.1088951  60.3791661  67.8635209  42.1028951
  59.6711661  65.7435209  41.6678951  58.6561661  64.5715209  41.4908951
  57.7599131  64.9123039  40.9725346  58.3786551  64.1522838  42.4580181
  59.4711661  63.6185209  40.6668951  59.2006084  63.7566946  39.6200878
  59.2222306  62.6030334  40.9749820  60.9191661  63.9065209  40.8988951
  61.4920768  63.6311152  40.0134437  61.3253422  63.3904677  41.7688432
  60.9861661  65.4225209  41.1118951  61.7380913  65.7083473  41.8474290
  61.2641661  66.1435209  39.7938951  60.3271661  66.4975209  39.0708951
  62.5871661  66.3315209  39.5498951  63.7901661  65.8685209  40.3528951
  63.6977593  64.8101090  40.5964634  63.8757788  66.4464504  41.2730946
  64.9161661  66.1445209  39.3958951  65.1780774  65.2103846  38.8990140
  65.7712921  66.5027514  39.9690721  64.4621661  67.1755209  38.4148951
  64.9546683  67.0070998  37.4572026  64.6523024  68.1964359  38.7460754
  62.9551661  66.9445209  38.2728951  62.3965637  67.8754819  38.1760793
  62.6541661  66.0445209  37.0768951  62.7281661  64.8195209  37.1878951
  62.1731661  66.6915209  36.0118951  61.8901532  67.6591171  36.0732195
  61.9981661  65.9995209  34.7408951  61.6582262  64.9795441  34.9203033
  60.9571661  66.7175209  33.8758951  59.9735054  66.6426150  34.3394681
  61.2252476  67.7678138  33.7613645  60.8231661  66.1555209  32.4918951
  60.5811661  64.8535209  32.1518951  60.4700219  64.1428523  32.9708559
  60.5291661  64.7235209  30.7828951  60.3635230  63.8640594  30.2789232
  60.7371661  65.9515209  30.2138951  60.7741661  66.3275209  28.8678951
  60.6178096  65.5613436  28.1085377  61.0071661  67.6495209  28.5868951
  61.0456942  67.9774055  27.5480942  61.1981661  68.5955209  29.6068951
  61.3799994  69.6442605  29.3719878  61.1611661  68.2235209  30.9458951
  61.3178698  68.9931080  31.7017261  60.9261661  66.8795209  31.2628951
  63.3201661  65.9005209  33.9868951  64.0741661  66.8735209  33.9138951
  63.6401661  64.7485209  33.4198951  62.9643471  64.0001380  33.4772612
  64.9181661  64.4785209  32.7678951  65.7354046  64.6684295  33.4637077
  64.9901661  63.0185209  32.3158951  64.0748889  62.8007111  31.7655083
  65.8471147  62.9150537  31.6502874  65.1281661  62.0455209  33.4728951
  65.5261661  62.4665209  34.5798951  64.8411661  60.8445209  33.2738951
  65.1321661  65.4095209  31.5758951  66.2721661  65.7005209  31.2078951
  64.1191661  65.9005209  30.9968951  63.2101529  65.6990926  31.3883295
  64.1881661  66.7335209  29.8068951  64.7682999  66.2000514  29.0539315
  63.1725907  66.8860289  29.4415909  64.8301661  68.0845209  30.0588951
  65.8201661  68.4375209  29.4138951  64.3881661  68.7685209  31.1788951
  63.7144498  68.4178634  31.8446615  64.9041661  70.1205209  31.3638951
  65.7284619  70.2984228  30.6732529  63.8091661  71.1545209  31.0948951
  64.2712046  72.1407981  31.1382200  63.4221342  70.9789543  30.0911607
  62.6691661  71.0855209  32.0958951  62.7531661  70.2985209  33.0628951
  61.6771661  71.8215209  31.9128951  65.4661661  70.3045209  32.7718951
  65.8841661  71.4045209  33.1408951  65.3851661  69.2845209  33.5688951
  64.8648851  68.4734632  33.2662528  66.0101661  69.2525209  34.8828951
  66.0828413  68.2116250  35.1980985  67.0109146  69.6748883  34.7922989
  65.2381661  70.0325209  35.9298951  65.6291661  70.0695209  37.0988951
  64.1461661  70.7345209  35.5058951  63.8919768  70.7642505  34.5288571
  63.3451661  71.5035209  36.4528951  63.9818541  71.8858322  37.2507458
  62.6781661  72.6865209  35.7508951  62.1797716  73.3035878  36.4985117
  63.4454097  73.2749546  35.2477220  61.7281661  72.2375209  34.7998951
  61.3219077  72.9944996  34.3714827  62.2861661  70.6335209  37.1168951
  61.8601661  69.6225209  36.5528951  61.8801661  71.0145209  38.3648951
  62.5311661  72.0495209  39.2598951  62.2706867  73.0580104  38.9386479
  63.6152930  71.9365560  39.2572506  61.9211661  71.6905209  40.5848951
  61.8039573  72.6058375  41.1650302  62.6038562  71.0172857  41.1033447
  60.6041661  71.0285209  40.3378951  59.8300028  71.7895800  40.2401242
  60.3226679  70.3229668  41.1195931  60.7801661  70.2915209  39.0078951
  61.0927191  69.2559741  39.1422521  59.4921661  70.3315209  38.1878951
  59.0461661  71.4085209  37.7828951  58.9661661  69.1325209  37.9298951
  59.4860807  68.3095277  38.1990984  57.6931661  68.9515209  37.2378951
  57.4716706  67.8884961  37.1429362  56.5611661  69.6185209  38.0198951
  56.7256686  70.6955936  38.0507597  55.6094454  69.4107229  37.5308680
  56.4081661  69.0345209  39.7208951  57.7541661  69.5235209  35.8278951
  56.7331661  69.9305209  35.2728951  58.9531661  69.6385209  35.2968951
  59.7830076  69.3937370  35.8179933  59.1121661  70.1245209  33.9368951
  60.1627766  70.0267687  33.6634699  58.5068580  69.4986599  33.2811518
  58.6901661  71.5715209  33.7658951  58.2171661  71.9645209  32.6978951
  58.8681661  72.4125209  34.7148951  59.3499609  72.0360674  35.5187955
  58.4111661  73.7995209  34.7678951  57.3350775  73.8405415  34.5992245
  58.7151661  74.4115209  36.1368951  58.3019062  73.7411968  36.8905402
  59.7994898  74.4501167  36.2410708  58.1371661  75.8075209  36.3278951
  58.6105561  76.4615082  35.5955677  57.0671133  75.7530789  36.1275898
  58.3631661  76.3635209  37.7238951  57.8281661  77.4515209  38.0388951
  59.0821661  75.7095209  38.5108951  59.0531661  74.6345209  33.6638951
  58.3801661  75.4395209  33.0168951  60.3321661  74.4695209  33.3618951
  60.8455643  73.7681037  33.8762252  61.0491661  75.2625209  32.3698951
  60.8691684  76.3231271  32.5454356  62.5551661  75.0005209  32.4588951
  62.6293273  73.9133051  32.4825804  63.0187627  75.3760138  31.5466542
  63.2741661  75.5865209  33.6738951  62.7990308  75.2155420  34.5820371
  64.7441661  75.1795209  33.6668951  65.2201181  75.5505691  32.7592102
  65.2433953  75.6040451  34.5379004  64.8209483  74.0926898  33.6985645
  63.1341661  77.1055209  33.6968951  62.0786913  77.3729075  33.7476566
  63.6521000  77.5054915  34.5685999  63.5715388  77.5249838  32.7908846
  60.5501661  74.9495209  30.9628951  60.6981661  75.7675209  30.0508951
  59.8641661  73.8065209  30.9018951  59.7269650  73.1917222  31.6913871
  59.3251661  73.4015209  29.6078951  59.7098582  74.0568669  28.8264651
  59.7321661  71.9635209  29.2838951  59.3968948  71.3122191  30.0910495
  59.2525464  71.6631207  28.3523241  61.1391661  71.8585209  29.1458951
  61.3738754  70.9500228  28.9430590  57.8061661  73.5265209  29.5788951
  57.1491661  72.9965209  28.6778951  57.2671661  74.1395209  30.5498951
  57.8717705  74.4451766  31.2989796  55.8341661  74.3865209  30.6728951
  55.6283828  74.8979576  31.6132062  55.3371661  75.2615209  29.5218951
  55.5406980  74.7535204  28.5792343  54.2626421  75.4094165  29.6297141
  55.9901661  76.5195209  29.5308951  55.6655245  77.0537758  28.8023490
  55.0491661  73.0785209  30.7028951  53.9611661  72.9875209  30.1308951
  55.6231661  72.0845209  31.2518951  56.5701983  72.1481165  31.5971269
  54.9371661  70.7995209  31.3458951  54.2434347  70.6907674  30.5122233
  55.9421661  69.6475209  31.2988951  56.6831057  69.8339990  32.0762842
  55.3957570  68.7331962  31.5302979  56.6421661  69.4935209  29.9588951
  55.8829742  69.4650994  29.1772810  57.2864017  70.3596473  29.8076078
  57.4781661  68.2235209  29.8998951  58.3322310  68.3266309  30.5692534
  56.8674690  67.3787230  30.2184308  57.9701661  67.9625209  28.5508951
  58.6758451  68.5907685  28.1939336  57.5531661  66.9675209  27.7718951
  56.6271661  66.1145209  28.1968951  56.2337100  66.2201925  29.1210844
  56.3210449  65.3644201  27.5937881  58.0681661  66.8215209  26.5588951
  58.7740356  67.4659077  26.2323769  57.7522331  66.0665907  25.9669784
  54.1041661  70.7145209  32.6208951  53.0491661  70.0785209  32.6388951
  54.5671661  71.3925209  33.6208951  55.4206240  71.9288827  33.5574510
  53.8461661  71.3915209  34.8828951  52.8543128  71.8078709  34.7068870
  53.7518115  70.3587722  35.2184941  54.5361661  72.2005209  35.9638951
  55.5271661  72.8845209  35.6988951  53.9361661  72.1965209  37.0918951
  53.0551536  71.7182264  37.2149830  54.4901661  72.9285209  38.2258951
  55.5748946  72.9847496  38.1347816  53.9291661  74.3505209  38.2708951
  54.3739661  74.8774885  39.1150263  54.1920020  74.8617219  37.3447791
  52.5201661  74.3315209  38.4158951  52.1889980  75.2322155  38.4419123
  54.1931661  72.2155209  39.5398951  53.2661661  71.4065209  39.6188951
  55.0601661  72.4585209  40.5008951  55.8848544  73.0099534  40.3113935
  54.8881661  71.9095209  41.8418951  54.5314813  70.8816340  41.7761412
  56.2131661  71.9185209  42.5998951  57.0042431  71.5369744  41.9543576
  56.4521339  72.9379469  42.9028228  56.1981661  70.9225209  44.1068951
  53.8411661  72.6955209  42.6218951  54.0401661  73.8725209  42.9278951
  52.7381661  71.9495209  43.0008951  52.6458463  70.9575271  42.8349897
  51.6221661  72.6535209  43.6238951  51.9529045  73.6313013  43.9741192
  50.4851661  72.8525209  42.6218951  50.1798746  71.8643185  42.2778714
  49.6596554  73.3212678  43.1575335  50.8651661  73.7115209  41.4238951
  51.3654020  74.6110440  41.7826751  51.5480644  73.1444163  40.7913254
  49.6631661  74.1235209  40.5928951  48.5151661  73.9475209  41.0098951
  49.9211661  74.6755209  39.4128951  49.1590386  74.9686001  38.8184478
  50.8783216  74.7997135  39.1153534  51.1151661  71.9015209  44.8508951
  51.3791661  70.7065209  45.0068951  50.3531661  72.7385209  45.6928951
  50.3028589  73.7414418  45.5846446  49.6601661  72.1295209  46.8218951
  50.3510643  71.4998558  47.3825026  49.1101661  73.2065209  47.7588951
  48.5198111  73.9129641  47.1753558  48.4722327  72.7267446  48.5011590
  50.2031661  73.9685209  48.4798951  50.1071661  75.1845209  48.6698951
  51.2481661  73.2625209  48.8908951  52.0047963  73.7223369  49.3768786
  51.2824358  72.2683734  48.7159749  48.5381661  71.2045209  46.3588951
  47.8361661  71.5095209  45.3928951  48.4851661  70.1065209  47.1388951
  49.1638730  69.8645475  47.8466417  47.3851661  69.1805209  46.8898951
  47.1680470  69.1089257  45.8241406  47.6931661  67.7735209  47.4478951
  47.9433897  67.8599632  48.5052580  46.4811661  66.8495209  47.2838951
  46.2306126  66.7622123  46.2266814  46.7187239  65.8634650  47.6830951
  45.6310867  67.2648980  47.8251215  48.9291661  67.1845209  46.7568951
  48.6252580  66.8829091  45.7545125  49.6699646  67.9810466  46.6871525
  49.5341661  65.9915209  47.4838951  48.7940527  65.1943570  47.5536204
  50.4034583  65.6323575  46.9330484  49.8387573  66.2924943  48.4862619
  46.1021661  69.7265209  47.5108951  46.0861661  70.1125209  48.6818951
  45.0711661  69.7925209  46.6988951  45.1601785  69.5785447  45.7158436
  43.7701661  70.2325209  47.1968951  43.8954123  70.7587633  48.1431939
  43.1061661  71.1795209  46.1948951  42.9618467  70.5610602  45.3090184
  42.1354367  71.4696067  46.5969332  43.8961661  72.4325209  45.8178951
  44.8799330  72.1374283  45.4528964  43.1631661  73.2125209  44.7298951
  42.1794263  73.5083755  45.0943466  43.7368704  74.1024145  44.4709477
  43.0489698  72.5846167  43.8462685  44.1301661  73.3075209  47.0438951
  44.6932878  72.7461436  47.7894479  44.6940560  74.1946309  46.7555111
  43.1707231  73.6083793  47.4646710  42.8611661  69.0405209  47.4718951
  42.4291661  68.3575209  46.5388951  42.5921661  68.8545209  48.7808951
  42.9718690  69.4466965  49.5056386  41.7551661  67.7265209  49.1768951
  41.8524003  66.9200252  48.4501150  42.1831661  67.2015209  50.5508951
  42.0444340  68.0579211  51.2107674  41.4959694  66.4061362  50.8393806
  43.6231661  66.6975209  50.6658951  44.3024299  67.4811949  50.3304004
  43.9431661  66.3325209  52.1108951  43.2645651  65.5485227  52.4469697
  44.9709670  65.9756456  52.1769719  43.8231094  67.2120278  52.7434728
  43.8481661  65.5035209  49.7448951  43.6589327  65.7992305  48.7129814
  44.8778910  65.1591284  49.8406122  43.1687616  64.6973674  50.0217073
  40.2841661  68.1275209  49.2088951  39.9531661  69.2645209  49.5508951
  39.4331661  67.2305209  48.7528951  39.7678861  66.3848039  48.3137771
  37.9931661  67.4515209  48.8198951  37.7407594  68.3882588  48.3229926
  37.2421661  66.3145209  48.1288951  37.4957681  66.3196947  47.0688203
  37.5532216  65.3683570  48.5717476  35.8421661  66.4685209  48.2798951
  35.3912388  65.7447363  47.8389867  37.5191661  67.5815209  50.2628951
  37.9701661  66.8405209  51.1388951  36.5891661  68.5475209  50.4908951
  36.3088692  69.1682606  49.7450967  36.0151661  68.7545209  51.8148951
  36.5960519  68.2085860  52.5582833  36.0281661  70.2395209  52.1788951
  35.4440476  70.7628929  51.4219364  35.5387983  70.3390316  53.1477691
  37.4231661  70.8445209  52.2508951  37.8772759  70.7890829  51.2615459
  37.3371485  71.8883841  52.5526446  38.3231661  70.1275209  53.2378951
  37.9521661  69.9155209  54.3968951  39.5161661  69.7495209  52.7878951
  40.1554680  69.2679149  53.4038904  39.7774138  69.9457873  51.8322118
  34.5921661  68.2085209  51.8898951  33.8831661  68.4435209  52.8698951
  34.1951661  67.5565209  50.8518951  34.7786582  67.4570854  50.0335132
  32.8491661  66.9925209  50.8148951  32.1290559  67.7915419  50.9912641
  32.5671661  66.3745209  49.4468951  33.2745669  65.5666358  49.2597969
  31.5516151  65.9790158  49.4286738  32.6737836  67.1362517  48.6745622
  32.6581661  65.9535209  51.9148951  33.6011661  65.2475209  52.2788951
  31.4861661  65.9885209  52.5108951  30.2471661  66.7425209  52.0808951
  30.1126103  66.6707374  51.0016166  30.3203434  67.7913618  52.3684310
  29.1801661  66.0125209  52.8448951  28.7295023  65.2743853  52.1814519
  28.4236707  66.7351537  53.1508656  29.8101661  65.3645209  54.0338951
  29.2710315  64.4480579  54.2737457  29.8366668  66.0101794  54.9116892
  31.2351661  65.0285209  53.5898951  31.9698230  65.2073260  54.3750106
  31.3341661  63.5785209  53.1218951  31.0321661  63.2765209  51.9658951
  31.8251661  62.6775209  54.1018951  32.1240645  63.0291381  55.0002962
  31.9591661  61.2485209  53.8388951  31.9931716  61.0731058  52.7636406
  33.2461661  60.7055209  54.4638951  33.0815517  60.8136976  55.5359488
  33.3231332  59.6474452  54.2135917  34.5431661  61.4175209  54.0728951
  34.4318644  62.4861232  54.2567480  35.7101661  60.8805209  54.8918951
  35.8223903  59.8119890  54.7081997  36.6256604  61.3965195  54.6025570
  35.5185802  61.0483035  55.9517273  34.8111661  61.2545209  52.5788951
  33.9857401  61.6851785  52.0120571  35.7371123  61.7666835  52.3173335
  34.9022742  60.1951504  52.3390359  30.7561661  60.4825209  54.3778951
  30.0531661  60.9675209  55.2678951  30.5281661  59.3175209  53.7898951
  31.0576949  59.0137760  52.9852600  29.4901661  58.4385209  54.3038951
  28.5574546  59.0014605  54.3392136  29.3831231  57.6019862  53.6133512
  29.7941661  57.8995209  55.6888951  30.9051661  58.0725209  56.1958951
  28.8991661  57.2615209  56.3718951  27.4411661  56.9595209  55.8028951
  27.4918225  56.3180198  54.9231165  26.9235913  57.8843784  55.5482305
  26.8281661  56.2675209  56.9868951  26.9054640  55.1917125  56.8295412
  25.7772522  56.5517253  57.0408311  27.5591661  56.6925209  58.2178951
  27.4843144  55.9110810  58.9741013  27.1946008  57.6331020  58.6308105
  29.0161661  56.8475209  57.7718951  29.5351984  57.6392080  58.3122056
  29.7791661  55.5335209  57.9378951  29.9501661  55.0535209  59.0618951
  30.3061661  54.8845209  56.8698951  30.2955008  55.3905713  55.9958822
  30.8281661  53.5205209  56.8738951  30.1412994  52.8644030  57.4085188
  30.9861661  53.0015209  55.4428951  31.6270016  53.7056631  54.9122230
  31.4828320  52.0331093  55.5029120  29.6691661  52.8505209  54.6938951
  29.8139509  52.1448373  53.8758799  28.9174382  52.4609489  55.3803649
  29.1681661  54.1615209  54.1198951  29.8831661  55.1695209  54.1208951
  27.9331661  54.1605209  53.6268951  27.5495915  55.0073751  53.2321674
  27.3843929  53.3129118  53.6494364  32.1621661  53.4455209  57.6098951
  32.5451661  52.3815209  58.1028951  32.8331661  54.5415209  57.7528951
  32.4459513  55.3851253  57.3547799  34.1331661  54.6205209  58.4108951
  34.3650108  53.6667382  58.8848633  35.2321661  54.9415209  57.3938951
  35.1675151  54.2600784  56.5456289  35.1311591  55.9684763  57.0428106
  36.6251661  54.8105209  57.9458951  37.3541661  55.9385209  58.3078951
  36.9037320  56.9237481  58.1873282  38.6441661  55.8205209  58.8188951
  39.2058779  56.7111171  59.1007089  39.2141661  54.5645209  58.9688951
  40.2243651  54.4668285  59.3664554  38.4981661  53.4345209  58.6128951
  38.9424408  52.4462603  58.7314745  37.2091661  53.5615209  58.1028951
  36.6446391  52.6727856  57.8208336  34.1181661  55.6725209  59.5138951
  34.2051661  56.8705209  59.2378951  34.0521661  55.2545209  60.7958951
  33.9081661  53.7405209  61.2498951  34.8376232  53.1983241  61.0760200
  33.0973075  53.2536421  60.7080868  33.6021661  53.9065209  62.7098951
  34.5223294  53.7455820  63.2715866  32.8678355  53.1522774  62.9926964
  33.0631661  55.2845209  62.9278951  33.2929166  55.6075180  63.9432702
  31.9890739  55.3587338  62.7578422  33.8131661  56.1605209  61.9208951
  33.2076151  56.9914417  61.5589878  35.1071661  56.7005209  62.5268951
  35.0761661  57.3715209  63.5618951  36.2491661  56.4565209  61.8938951
  36.2558804  55.9524997  61.0186712  37.5271661  56.8625209  62.4678951
  37.3799555  57.1957256  63.4952231  38.5141661  55.6915209  62.4698951
  38.7712365  55.4183043  61.4464857  39.4200101  55.9654951  63.0107139
  37.9801661  54.4465209  63.1268951  37.9531661  54.3335209  64.5098951
  38.3251230  55.1588749  65.1169690  37.4591661  53.1845209  65.1238951
  37.4403141  53.1071871  66.2109852  36.9901661  52.1365209  64.3458951
  36.6054218  51.2335282  64.8198950  37.0111661  52.2385209  62.9648951
  36.6396729  51.4175823  62.3515822  37.5071661  53.3905209  62.3598951
  37.5268888  53.4700016  61.2729757  38.1151661  58.0395209  61.7008951
  37.7021661  58.3225209  60.5738951  39.0581661  58.7575209  62.4018951
  39.1980092  58.5633882  63.3831472  39.8371661  59.8295209  61.7908951
  39.7918494  59.7460741  60.7050396  39.2821661  61.1955209  62.1998951
  38.2341194  61.2525881  61.9058873  39.3615244  61.2985890  63.2821055
  40.0061661  62.2395209  61.5718951  39.6436610  63.0868814  61.8405398
  41.3091661  59.7335209  62.1778951  41.6371661  59.5405209  63.3498951
  42.1421661  59.8035209  61.1778951  41.8057427  59.8006528  60.2255767
  43.5751661  59.8875209  61.4018951  44.0399539  60.2528155  60.4861269
  43.7505182  60.6007879  62.2072529  44.2001661  58.5575209  61.7758951
  45.2511661  58.5175209  62.4168951  43.5461661  57.5025209  61.4058951
  42.6985381  57.5119898  60.8567718  44.0541661  56.2165209  61.8718951
  44.9102797  56.3427054  62.5346517  42.9681661  55.4125209  62.6168951
  43.3759447  54.4397030  62.8915607  42.5181661  56.1505209  63.8778951
  42.1098155  57.1233093  63.6039726  41.7523007  55.5660695  64.3877648
  43.3710902  56.2891082  64.5422864  41.7761661  55.1455209  61.6988951
  42.1060852  54.5747245  60.8308819  41.0198271  54.5774936  62.2405554
  41.3510798  56.0936145  61.3694697  44.5871661  55.4115209  60.6878951
  45.1881661  54.3495209  60.8708951  44.2941661  55.9025209  59.4558951
  43.7548788  56.7513045  59.3619005  44.6961661  55.2005209  58.2418951
  45.4159419  54.4200065  58.4885108  43.4831661  54.5525209  57.5688951
  42.8704409  54.1101819  58.3543906  42.9183739  55.3384279  57.0674373
  43.8641661  53.4825209  56.5618951  44.5321661  53.8015209  55.5558951
  43.4881661  52.3095209  56.7738951  45.3931661  56.1455209  57.2658951
  44.8981661  57.2415209  56.9918951  46.5351661  55.7045209  56.7008951
  46.8577894  54.7702447  56.9086005  47.3581661  56.5445209  55.8368951
  47.5358054  57.5065486  56.3175678  48.7081661  55.8755209  55.5678951
  48.5100315  54.8668190  55.2054558  49.2148004  56.4473973  54.7904768
  49.5911661  55.8055209  56.8008951  49.3741661  56.5865209  57.7528951
  50.5151661  54.9635209  56.8218951  46.6491661  56.8395209  54.5188951
  47.0191661  57.7725209  53.8018951  45.5871661  56.1345209  54.3148951
  45.2137771  55.4975849  55.0040921  44.9231661  56.2175209  53.0178951
  45.6231286  56.5883933  52.2691592  44.4221661  54.8385209  52.5788951
  43.7443130  54.4786817  53.3529300  43.8707480  54.9752940  51.6486633
  45.5321661  53.8215209  52.3648951  46.0737536  54.0899153  51.4578404
  46.2087641  53.8668346  53.2182789  44.9821661  52.4075209  52.2278951
  44.2381835  52.3877062  51.4315308  45.7975292  51.7280637  51.9796604
  44.3541661  51.9525209  53.4668951  44.4510420  52.5522663  54.2737532
  43.6701661  50.8195209  53.5968951  43.5151661  49.9985209  52.5638951
  43.9201587  50.2352135  51.6694357  42.9930537  49.1414793  52.6778153
  43.1411661  50.5015209  54.7678951  43.2595246  51.1207965  55.5569383
  42.6216208  49.6410770  54.8669284  43.7601661  57.2035209  53.0588951
  43.2211661  57.5805209  52.0178951  43.2431661  57.7535209  54.1788951
  43.8003395  57.5209383  54.9885632  42.0331661  58.5465209  54.3758951
  41.1588981  57.9614109  54.0905868  41.8901661  58.9555209  55.8438951
  42.8222848  59.4387559  56.1367058  41.0744944  59.6763561  55.9002536
  41.6051661  57.7935209  56.7828951  40.7107878  57.2872598  56.4197314
  42.4547713  57.1128635  56.7283456  41.3931661  58.2235209  58.2238951
  41.7891661  57.4735209  59.1458951  40.8281661  59.3205209  58.4358951
  42.0311661  59.7845209  53.4828951  41.0311661  60.0835209  52.8288951
  43.0661661  60.5545209  53.3548951  43.8580558  60.2805352  53.9187586
  43.1791661  61.7625209  52.5438951  42.2853898  61.8798337  51.9311140
  43.3261661  62.9965209  53.4348951  44.1552476  62.8132026  54.1183551
  43.5653339  63.8449118  52.7936995  42.0711661  63.3035209  54.2328951
  40.9541661  63.0395209  53.7378951  42.2001661  63.8165209  55.3658951
  44.3611661  61.6675209  51.5808951  45.1931661  62.5755209  51.5198951
  44.3571661  60.5055209  50.9818951  43.6716136  59.7776851  51.1246258
  45.4701661  60.2395209  50.0768951  46.3770935  60.0545356  50.6525360
  45.1791661  59.0085209  49.2128951  44.9681331  58.1502746  49.8508429
  44.3234831  59.1979789  48.5648116  46.3141661  58.6095209  48.3188951
  46.4631661  58.9105209  46.9928951  45.6764176  59.5068376  46.5307989
  47.6331661  58.3655209  46.5128951  47.9754849  58.4470119  45.5661762
  48.2601661  57.6985209  47.5298951  49.4651661  56.9925209  47.5358951
  50.0364953  56.9317161  46.6096206  49.8561661  56.4155209  48.7178951
  50.7903677  55.8553331  48.7573525  49.0811661  56.5285209  49.8818951
  49.4009739  56.0666340  50.8159630  47.8811661  57.2335209  49.8788951
  47.3128935  57.2926040  50.8071602  47.4571661  57.8325209  48.6848951
  45.7501661  61.4455209  49.1868951  44.8261661  62.0325209  48.6188951
  47.1241661  61.7545209  49.0858951  47.6291661  62.5215209  47.7288951
  47.4157985  63.5888509  47.7870428  47.1456201  62.1024090  46.8464964
  49.1001661  62.2245209  47.7708951  49.6150780  63.1064247  48.1519601
  49.4359022  62.0192906  46.7543995  49.3201661  61.0395209  48.6548951
  50.3268513  61.0770081  49.0711627  49.1751122  60.0891455  48.1412362
  48.2881661  61.1905209  49.7748951  47.9924244  60.2310719  50.1992682
  48.8141661  62.0965209  50.8848951  50.0111661  62.0775209  51.1848951
  48.0481661  62.7905209  51.5548951  47.0758932  62.5258433  51.4861176
  48.3941661  63.9465209  52.3758951  48.9996448  64.6435464  51.7965417
  47.1291661  64.6685209  52.8418951  47.4182242  65.5587665  53.4004714
  46.5492847  64.9616881  51.9667434  46.3441661  63.8275209  53.6678951
  45.5567025  64.2994217  53.9486273  49.2291661  63.5375209  53.5838951
  49.9441661  64.3605209  54.1598951  49.1221661  62.2855209  53.8698951
  48.5163744  61.5993189  53.4429965  49.9581661  61.8685209  54.9888951
  49.8796536  62.5633695  55.8250293  49.5811661  60.4545209  55.4848951
  49.4826094  59.7932717  54.6240030  50.6541661  59.9085209  56.4258951
  50.7529774  60.5690404  57.2873191  50.3691778  58.9120874  56.7635374
  51.6068374  59.8544042  55.8990264  48.2201661  60.4805209  56.1798951
  47.4601345  60.8253779  55.4788048  47.9680513  59.4774169  56.5238720
  48.2603171  61.1573404  57.0333611  51.4291661  61.9075209  54.5758951
  52.2981661  62.2415209  55.3848951  51.6401661  61.6795209  53.3228951
  50.8924627  61.5131071  52.6646054  53.0141661  61.6075209  52.8408951
  53.6908678  61.4530317  53.6813159  53.1821661  60.4465209  51.8578951
  52.4849857  60.5564489  51.0272601  54.2022056  60.4213241  51.4745092
  52.9171661  59.0945209  52.4668951  53.9181661  58.4155209  53.1498951
  54.9031358  58.8732880  53.2414589  53.6761661  57.1655209  53.7138951
  54.4685794  56.6433114  54.2500659  52.4231661  56.5855209  53.5918951
  52.2284601  55.6060607  54.0287557  51.4171661  57.2535209  52.9128951
  50.4304314  56.8003705  52.8174524  51.6661661  58.5025209  52.3528951
  50.8748983  59.0273230  51.8175654  53.4231661  62.9175209  52.1758951
  54.5251661  63.4205209  52.4068951  52.5931661  63.5015209  51.3898951
  51.6645765  63.1185662  51.2842247  52.9511661  64.6735209  50.6008951
  53.8230105  65.1604158  51.0378392  53.2861661  64.2695209  49.1608951
  52.3611349  63.9261056  48.6977727  53.6400394  65.1625662  48.6457796
  54.3301661  63.1855209  49.0618951  55.6401661  63.4105209  49.4828951
  55.9009548  64.3877836  49.8891541  56.6061661  62.4155209  49.3918951
  57.6271658  62.6019851  49.7249005  56.2621661  61.1795209  48.8748951
  57.2161661  60.1885209  48.7808951  58.0776817  60.4656059  49.1012301
  54.9701661  60.9295209  48.4498951  54.6997948  59.9554147  48.0423208
  54.0121661  61.9335209  48.5458951  52.9911016  61.7461080  48.2136247
  51.8251661  65.7005209  50.6038951  50.6511661  65.3435209  50.4768951
  52.2451661  67.0075209  50.7518951  53.2075325  67.2082672  50.9835226
  51.3101661  68.1245209  50.6498951  50.2875187  67.7573006  50.7361542
  51.5601661  69.1405209  51.7648951  52.6309124  69.3347433  51.8271805
  51.0374211  70.0649633  51.5194486  51.0761661  68.6545209  53.1178951
  50.2811661  67.7145209  53.2048951  51.5511661  69.2905209  54.1818951
  51.2613046  69.0070900  55.1069610  52.2002400  70.0549159  54.0614615
  51.3951661  68.8035209  49.2858951  50.4501661  69.4695209  48.8588951
  52.5001661  68.4915209  48.6518951  53.2101515  67.8924905  49.0483578
  52.7441661  69.0775209  47.3378951  51.8184508  69.4959405  46.9428315
  53.7851661  70.1965209  47.4338951  54.6982659  69.7548261  47.8329611
  53.9682180  70.5551218  46.4209798  53.3591661  71.3605209  48.3138951
  52.4987807  71.8442585  47.8514713  53.0733932  70.9673636  49.2895299
  54.4801661  72.3755209  48.4848951  54.1545755  73.1548655  49.1738884
  55.3574390  71.8736844  48.8931253  54.8451661  72.9965209  47.2148951
  55.5821000  72.5520928  46.6862066  54.2801661  74.0925209  46.7178951
  53.3081661  74.7125209  47.3758951  52.9925002  74.3497301  48.2640605
  52.8887579  75.5441839  46.9853403  54.6901661  74.5715209  45.5518951
  55.4287377  74.1017496  45.0479834  54.2621037  75.4040559  45.1727555
  53.2041661  68.0195209  46.3428951  54.0831661  67.2115209  46.6488951
  52.5661661  67.9795209  45.1478951  51.7457073  68.5543534  45.0193872
  52.9811661  67.1125209  44.0518951  54.0224030  66.8201953  44.1878025
  52.1161661  65.8385209  43.9888951  52.4982017  65.1952676  43.1961945
  52.1521661  65.0865209  45.3148951  51.7698176  65.7290211  46.1080551
  51.5335977  64.1919433  45.2427629  53.1788554  64.8002768  45.5430926
  50.7641661  66.2025209  43.6918951  50.2213583  65.4117374  43.6516297
  52.9011661  67.8505209  42.7178951  52.4461661  68.9935209  42.6628951
  53.4411661  67.1985209  41.6908951  53.9015296  66.3068139  41.8050151
  53.4181661  67.7995209  40.3628951  53.8009714  68.8188308  40.4135588
  54.2881661  66.9985209  39.3938951  54.0247565  65.9426599  39.4561203
  54.1226609  67.3544276  38.3770183  56.0591661  67.1505209  39.7108951
  51.9941661  67.8865209  39.8288951  51.2471661  66.9075209  39.8788951
  51.5471661  69.0805209  39.4418951  52.0602815  69.8811293  39.7822452
  50.3621661  69.3155209  38.6198951  49.7306653  68.4270922  38.6204192
  49.5521661  70.4915209  39.1698951  49.3448322  70.2780548  40.2184866
  50.1815594  71.3785171  39.0977703  48.2441661  70.7375209  38.4348951
  48.4716871  70.9783648  37.3964687  47.6493996  69.8249176  38.4737520
  47.4581661  71.8825209  39.0608951  47.2494055  71.6292798  40.1003117
  48.0716106  72.7827130  39.0229519  46.1471661  72.1305209  38.3258951
  46.3755783  72.3697590  37.2872933  45.5530189  71.2175567  38.3657008
  45.3751661  73.2535209  38.9368951  45.9253705  74.0996847  38.8997215
  44.5150269  73.3884473  38.4249817  45.1630430  73.0318510  39.8991660
  50.7441661  69.5775209  37.1658951  51.2731661  70.6405209  36.8388951
  50.4251661  68.5705209  36.3698951  49.9353056  67.7437979  36.6808050
  50.8481661  68.6405209  34.9748951  51.8254408  69.1187924  34.9093976
  50.9491661  67.2385209  34.3738951  49.9713129  66.7579694  34.4050802
  51.2857695  67.3094067  33.3395966  52.1251661  66.1635209  35.2268951
  49.8831661  69.4865209  34.1538951  48.7001661  69.5775209  34.4788951
  50.4101661  70.1745209  33.0988951  51.4052878  70.1026776  32.9418257
  49.6311661  71.0455209  32.2208951  48.6514012  71.2314943  32.6608654
  50.3421661  72.3865209  32.0258951  51.3318569  72.1728184  31.6222335
  49.7671217  72.9548360  31.2948398  50.4811661  73.2005209  33.3058951
  50.9031166  72.5458924  34.0684697  51.1751584  74.0163426  33.1036358
  49.1611661  73.7695209  33.8008951  49.0581661  74.1045209  35.0028951
  48.2231661  73.8815209  32.9818951  49.3831661  70.3835209  30.8698951
  50.1721661  69.5475209  30.4258951  48.2561661  70.7165209  30.2708951
  47.5938376  71.3396566  30.7103518  47.9381661  70.1905209  28.9538951
  47.0091381  70.6524724  28.6198189  48.7451051  70.4663107  28.2750071
  47.7731661  68.6815209  28.9378951  47.0531661  68.1225209  29.7678951
  48.4971661  68.0725209  27.9258951  49.0823142  68.5849891  27.2816300
  48.3561661  66.6325209  27.7368951  47.4675127  66.2771611  28.2585402
  48.2171661  66.2975209  26.2498951  49.0534675  66.7419697  25.7102985
  48.2441783  65.2142122  26.1323679  46.9241661  66.8175209  25.6528951
  45.8641661  66.7455209  26.2798951  47.0031661  67.3465209  24.4368951
  46.1717689  67.7082535  23.9918917  47.8942639  67.3845512  23.9629760
  49.5311661  65.8715209  28.3438951  49.7981661  64.7295209  27.9648951
  50.1791661  66.5715209  29.2828951  49.9691193  67.5346911  29.5026286
  51.2791661  65.9255209  29.9888951  51.7016537  65.1356684  29.3678182
  52.3821661  66.9375209  30.3108951  51.9773316  67.7611616  30.8989634
  53.1824510  66.4519839  30.8693734  53.0181661  67.5505209  29.0918951
  53.8891661  66.8145209  28.2998951  54.1101954  65.7821912  28.5710800
  54.4781661  67.3795209  27.1708951  55.1600111  66.7916857  26.5563726
  54.1951661  68.6925209  26.8298951  54.6556207  69.1396516  25.9488981
  53.3251661  69.4375209  27.6108951  53.0978875  70.4697302  27.3444580
  52.7411661  68.8645209  28.7378951  52.0575436  69.4485574  29.3540618
  50.7851661  65.2655209  31.2708951  49.8011661  65.7105209  31.8658951
  51.4481661  64.1985209  31.6278951  52.1932211  63.8320643  31.0528281
  51.0931661  63.4745209  32.8448951  50.6879467  64.1685002  33.5812979
  50.0391661  62.4065209  32.5478951  49.6758492  62.0342048  33.5057472
  49.2232209  62.8953140  32.0155281  50.5611661  61.2445209  31.7178951
  50.8257289  61.6231398  30.7305982  51.4525014  60.8506596  32.2062565
  49.3271661  59.8975209  31.5368951  50.3411661  58.6425209  30.7078951
  51.1885722  58.3823200  31.3421644  49.7395342  57.7525816  30.5231041
  50.7055663  59.0374675  29.7595645  52.3241661  62.8325209  33.4758951
  53.4491661  63.0845209  33.0418951  52.1821661  62.0305209  34.5008951
  51.2349435  61.8719641  34.8135104  53.2631661  61.3635209  35.2098951
  52.9486341  60.3420822  35.4239785  54.1359950  61.3451316  34.5572612
  53.6341661  62.0485209  36.5108951  53.2161661  63.1805209  36.7648951
  54.4381661  61.3825209  37.3248951  54.8066655  60.4802216  37.0600113
  54.7741661  61.9065209  38.6438951  53.8695925  62.2502803  39.1455675
  55.4281661  60.8195209  39.5038951  55.6715326  61.2166560  40.4893675
  54.7521788  59.9712362  39.6113853  56.7101661  60.2785209  38.9288951
  56.7161661  59.0955209  38.2018951  55.7792873  58.5593944  38.0504810
  57.9001661  58.5925209  37.6688951  57.8923432  57.6624994  37.1004768
  59.0881661  59.2755209  37.8618951  60.0169516  58.8838224  37.4471305
  59.0961661  60.4595209  38.5838951  60.0293044  61.0020050  38.7357643
  57.9071661  60.9555209  39.1158951  57.9108860  61.8846047  39.6858858
  55.7021661  63.1095209  38.5288951  55.8471661  63.8825209  39.4768951
  56.3351661  63.3305209  37.3218951  56.2520451  62.6397638  36.5897443
  57.1791661  64.4955209  37.0808951  57.0712271  65.2051422  37.9011914
  58.6491661  64.0825209  36.9818951  59.2544158  64.9770257  36.8348123
  58.9383931  63.5980600  37.9144965  58.9131661  63.1255209  35.8368951
  57.9891661  62.7275209  35.1198951  60.1731661  62.7495209  35.6548951
  60.4037085  62.1126728  34.9056458  60.8955100  63.1020171  36.2665049
  56.7551661  65.2465209  35.8218951  57.5441661  65.9975209  35.2458951
  55.6141661  64.8865209  35.2048951  55.1803768  64.0626361  35.5962260
  54.9871661  65.5145209  34.0468951  53.9863600  65.1074862  33.9026419
  54.8751661  67.0245209  34.2528951  55.8714881  67.4504977  34.3711560
  54.3884767  67.4746697  33.3876786  53.8961661  67.4945209  35.6958951
  55.7731661  65.2215209  32.7748951  55.7531661  66.0135209  31.8318951
  56.4221661  64.1195209  32.8118951  56.3680594  63.4686772  33.5823328
  57.2821661  63.7865209  31.6868951  57.5307748  64.7106647  31.1651182
  58.1934067  63.3347950  32.0789203  56.6361661  62.8245209  30.7068951
  57.2161661  62.5105209  29.6648951  55.4311661  62.4885209  31.0228951
  54.9747658  62.8251504  31.8586455  54.7151661  61.5375209  30.1788951
  55.3471649  61.2397203  29.3422401  54.3371661  60.2865209  30.9758951
  53.6493288  60.5993140  31.7614774  53.8237694  59.6105030  30.2921381
  55.5261661  59.5705209  31.5988951  56.1778929  59.2462067  30.7876163
  56.0543685  60.2919806  32.2222709  55.1291661  58.3685209  32.4408951
  55.9041661  57.9765209  33.3428951  54.0331661  57.8145209  32.1968951
  53.4671661  62.1695209  29.5688951  53.0381661  63.2455209  29.9938951
  52.9551661  61.4345209  28.4948951  53.4113627  60.6190061  28.1115942
  51.7241661  61.8975209  27.8658951  51.6435560  62.9801034  27.9639587
  51.7161661  61.5395209  26.3788951  51.8282446  60.4614475  26.2635900
  50.7729533  61.8559235  25.9335424  53.0281661  62.3395209  25.4298951
  50.5021661  61.2975209  28.5498951  50.5311661  60.1445209  28.9828951
  49.5191661  62.1445209  28.6918951  49.6222442  63.1340735  28.5179411
  48.2311661  61.6575209  29.1768951  48.3321436  61.3096783  30.2049555
  47.1861661  62.7725209  29.1388951  47.2944006  63.2821718  28.1814816
  46.2066061  62.2969753  29.1880727  47.3161661  63.7835209  30.2688951
  47.3257250  63.2436044  31.2157317  48.2579634  64.3185052  30.1467805
  46.1631661  64.7785209  30.2638951  46.1857804  65.3278559  29.3227157
  45.2281147  64.2232186  30.3374996  46.2641661  65.7575209  31.4248951
  46.2033167  65.1928338  32.3552318  47.2304298  66.2586208  31.3671663
  45.1721661  66.7765209  31.3888951  44.2767295  66.3124240  31.4428111
  45.2729585  67.4057984  32.1724452  45.2286329  67.3001698  30.5270932
  47.7511661  60.4625209  28.3608951  48.1211661  60.3125209  27.1928951
  46.8811661  59.6375209  29.0158951  46.6217533  59.7462872  29.9859334
  46.3391661  58.5035209  28.2788951  47.1489597  57.8388364  27.9780164
  45.3561661  57.7145209  29.1498951  44.5533635  58.3673408  29.4925806
  44.9326845  56.8859186  28.5822848  45.9811661  57.1175209  30.3818951
  47.0091661  56.1905209  30.2778951  47.3613218  55.8984748  29.2885542
  47.5891661  55.6355209  31.4148951  48.3958580  54.9086996  31.3196072
  47.1381661  56.0095209  32.6708951  47.5886393  55.5771412  33.5643276
  46.1141661  56.9335209  32.7898951  45.7585177  57.2308099  33.7764211
  45.5381661  57.4835209  31.6468951  44.7305034  58.2096649  31.7390678
  45.6501661  58.9655209  27.0018951  44.8891661  59.9365209  27.0178951
  46.0181661  58.3015209  25.8388951  46.7194269  57.5749141  25.8582649
  45.4051661  58.6335209  24.5638951  45.2697685  57.7095751  24.0016756
  44.4323690  59.0835212  24.7620485  46.2351661  59.5965209  23.7378951
  45.8661661  59.9335209  22.6108951  47.2871661  60.0625209  24.3178951
  47.4952171  59.8243317  25.2771031  48.1771661  60.9865209  23.6268951
  47.8288556  61.1393422  22.6054135  48.2071661  62.3415209  24.3418951
  48.9626462  62.3333981  25.1275687  48.4323329  63.1358474  23.6302453
  46.9061661  62.7095209  24.9998951  45.9231661  63.3935209  24.2978951
  46.1058073  63.6613028  23.2572054  44.7181661  63.7375209  24.9038951
  43.9545692  64.2747994  24.3414431  44.4911661  63.3945209  26.2268951
  43.5503590  63.6639183  26.7069023  45.4611661  62.7085209  26.9398951
  45.2834608  62.4333271  27.9795053  46.6651661  62.3705209  26.3258951
  47.4309560  61.8341449  26.8862223  49.5851661  60.4145209  23.5308951
  49.9941661  59.6135209  24.3738951  50.2921661  60.7735209  22.4838951
  49.8603329  61.3559741  21.7807822  51.6641661  60.3265209  22.2648951
  52.1411731  60.1164547  23.2222016  51.6841661  59.0525209  21.4188951
  52.7112689  58.6951106  21.3452942  51.0708296  58.2957242  21.9079523
  51.1771661  59.3035209  20.1188951  51.1983267  58.4928311  19.6051500
  52.4971661  61.4085209  21.5898951  52.0131661  62.5185209  21.3568951
  53.7591661  61.1135209  21.3928951  54.1242104  60.2142719  21.6725256
  54.6671661  62.0625209  20.7708951  55.3175621  61.5119191  20.0912468
  54.0715681  62.7776355  20.2034680  55.5231661  62.8165209  21.7708951
  55.2761661  62.7535209  22.9768951  56.4411661  63.5345209  21.3058951
  56.5268579  63.5918487  20.3011714  57.4131661  64.2505209  22.1248951
  57.8763557  63.5638875  22.8334776  58.5091661  64.8595209  21.2458951
  57.9594561  65.2998446  20.4140098  59.0003958  65.6490650  21.8145898
  59.5621661  63.8905209  20.7048951  59.0641813  62.9959535  20.3309152
  60.3511661  64.5425209  19.5748951  60.8498403  65.4369641  19.9482505
  61.0966485  63.8412891  19.1998874  59.6718857  64.8161036  18.7675346
  60.4941661  63.4345209  21.8218951  59.9151784  62.9308919  22.5959948
  61.2363526  62.7458860  21.4181099  60.9982628  64.3002969  22.2513336
  56.7341661  65.3435209  22.9418951  57.0711661  65.5505209  24.1108951
  55.6191661  65.8795209  22.3348951  55.2763020  65.5766330  21.4344494
  54.9391661  66.9875209  22.9968951  55.4410720  67.2197501  23.9361817
  54.9571661  68.2345209  22.1118951  54.5923588  67.9664819  21.1203459
  54.2979759  68.9834736  22.5508008  56.3441661  68.8315209  21.9728951
  57.1191661  68.8605209  22.9318951  56.6671661  69.3105209  20.7778951
  57.5789355  69.7193001  20.6306672  55.9996895  69.2640198  20.0213151
  53.5041661  66.6215209  23.3658951  52.6961661  67.4975209  23.6768951
  53.1461661  65.3875209  23.2278951  53.8175389  64.7843532  22.7745225
  51.8621661  64.8185209  23.6248951  51.8517199  63.7490403  23.4146540
  51.6241661  65.0245209  25.1198951  51.5895467  66.0916766  25.3391653
  50.6777016  64.5647785  25.4043978  52.8931661  64.2815209  26.1688951
  50.7201661  65.4385209  22.8278951  49.6661661  65.7495209  23.3848951
  50.9381661  65.5855209  21.5408951  51.8026083  65.2958752  21.1062177
  49.9271661  66.2275209  20.7088951  49.1330941  66.6270320  21.3397197
  50.5301661  67.3815209  19.8868951  49.7648001  67.7680912  19.2139327
  51.0221661  68.5045209  20.7958951  51.7879389  68.1187936  21.4688781
  51.4429944  69.3060534  20.1888132  50.1874327  68.8918610  21.3800939
  51.6311661  66.8885209  19.1178951  52.0093456  67.6059138  18.6041558
  49.2801661  65.2145209  19.7688951  48.2541661  65.5025209  19.1508951
  49.8811661  64.0625209  19.7108951  50.7248560  63.8620978  20.2286956
  49.3541661  63.0315209  18.8188951  48.8067758  63.4971382  17.9993442
  50.4941661  62.1955209  18.2328951  50.9877498  61.6939546  19.0653046
  50.0441383  61.4510824  17.5760951  51.5161661  63.0075209  17.4528951
  51.0119571  63.4125421  16.5754945  51.8451711  63.8264534  18.0925861
  52.7221661  62.1925209  17.0128951  53.7391661  62.7895209  16.5918951
  52.6491661  60.9455209  17.0878951  48.3611661  62.1305209  19.5468951
  48.6671661  61.5935209  20.6128951  47.1551661  61.9435209  18.8768951
  46.9421136  62.4324907  18.0192142  46.1391661  61.0615209  19.4408951
  46.1540668  61.1302830  20.5286216  44.7471661  61.4585209  18.9448951
  44.7948307  61.5139365  17.8573490  44.0605677  60.6642970  19.2379667
  44.2521661  62.7865209  19.4988951  45.0942291  63.4774666  19.5392066
  43.4926095  63.1792818  18.8229405  43.6581661  62.6285209  20.8928951
  43.3236889  61.5995902  21.0252789  44.4212628  62.8603997  21.6358724
  42.5211661  63.5195209  21.0968951  41.7721498  63.4615673  20.4218283
  42.4081661  64.3885209  22.0968951  43.3671661  64.5015209  23.0088951
  44.1920405  63.9222881  22.9443067  43.2671123  65.1661584  23.7627823
  41.3291661  65.1515209  22.1878951  40.5968935  65.0697901  21.4971007
  41.2437152  65.8114950  22.9476524  46.4211661  59.6045209  19.0888951
  46.8841661  59.3045209  17.9868951  46.2241661  58.8325209  20.0798951
  45.9929887  59.1643494  21.0053929  46.3971661  57.3975209  19.8828951
  46.4463638  57.1747248  18.8170430  47.6911661  56.9175209  20.5428951
  48.5046414  57.5174675  20.1349473  47.5998181  57.1091837  21.6120167
  47.9861661  55.4425209  20.3158951  47.1905279  54.8541439  20.7729214
  48.0076068  55.2521695  19.2428580  49.3131661  55.0095209  20.9118951
  49.7811661  55.5855209  21.8988951  49.9281661  53.9925209  20.3168951
  50.8143928  53.6640890  20.6730358  49.5064540  53.5528023  19.5113470
  45.2061661  56.6185209  20.4348951  44.7121661  56.9175209  21.5218951
  44.7641661  55.7645209  19.5368951  45.1003035  55.6996628  18.5866823
  43.6751661  54.8845209  19.9468951  43.4599600  55.0312240  21.0053202
  42.4081661  55.1905209  19.1428951  42.2415129  56.2537806  19.3155359
  42.6272562  55.0241755  18.0881777  41.1531661  54.4085209  19.5318951
  41.3775171  53.3420461  19.5119205  40.6941661  54.8055209  20.9328951
  40.4691720  55.8718466  20.9535365  39.7998532  54.2408480  21.1964280
  41.4853209  54.5876965  21.6503399  40.0421661  54.6385209  18.5138951
  40.3750161  54.3059514  17.5306821  39.1571262  54.0740399  18.8074369
  39.7987794  55.7002726  18.4745852  44.0631661  53.4215209  19.7678951
  44.4201661  52.9985209  18.6658951  43.9611661  52.6535209  20.8228951
  43.6892740  53.0757568  21.6991890  44.2721661  51.2265209  20.8088951
  44.6672786  50.9448017  19.8328727  45.3181661  50.8945209  21.8738951
  44.8829283  51.1434550  22.8417273  45.5001705  49.8210178  21.8232448
  46.6321661  51.6395209  21.7028951  47.1113169  51.2846047  20.7904534
  46.4134306  52.7031010  21.6077413  47.5651661  51.4175209  22.8848951
  47.0442780  51.6780611  23.8062492  47.8579509  50.3681002  22.9179517
  48.7701661  52.2365209  22.7808951  49.4775369  51.9263617  22.1301054
  48.9921661  53.3485209  23.4778951  48.0901661  53.7965209  24.3448951
  47.2267357  53.2896641  24.4778763  48.2722036  54.6418080  24.8668643
  50.1241661  54.0155209  23.3058951  50.8113059  53.6768061  22.6477072
  50.2946231  54.8595489  23.8337776  43.0171661  50.3895209  21.0288951
  42.0341661  50.8715209  21.5938951  43.1501661  49.2005209  20.4578951
  43.9579270  48.8714394  19.9486535  41.9861661  48.3255209  20.5488951
  41.1789168  48.8432077  21.0670148  41.4881661  47.9115209  19.1508951
  42.2877645  47.3756057  18.6394876  40.2581661  47.0145209  19.2508951
  39.4579323  47.5499543  19.7618124  39.9277158  46.7372154  18.2498939
  40.5088085  46.1146066  19.8125295  41.1491661  49.0865209  18.4038951
  40.8382843  48.8326623  17.5318237  42.3091661  47.0785209  21.3668951
  43.2851661  46.3805209  21.0838951  41.4951661  46.8335209  22.4328951
  40.8335650  47.5374918  22.7275277  41.5811661  45.5975209  23.2058951
  42.6095663  45.2363170  23.2107988  41.1401661  45.8365209  24.6508951
  40.1249724  46.2319813  24.6178494  41.1363391  44.8685530  25.1520174
  42.0351661  46.8005209  25.4168951  43.0629504  46.4442891  25.3471870
  41.9594389  47.7832487  24.9514775  41.6311661  46.9005209  26.8818951
  40.6042812  47.2602546  26.9466872  41.6996802  45.9141384  27.3406485
  42.4961661  47.8195209  27.6168951  43.1813506  48.3291933  27.0775847
  42.4371661  48.0295209  28.9288951  41.5531661  47.3845209  29.6798951
  40.9170379  46.7263858  29.2529302  41.5206434  47.5547852  30.6749087
  43.2731661  48.8875209  29.4958951  43.9505705  49.3773928  28.9291068
  43.2289938  49.0475423  30.4921585  40.7331661  44.4965209  22.5758951
  39.5701661  44.7225209  22.2328951  41.3261661  43.3375209  22.4908951
  42.2627851  43.1906808  22.8391510  40.6521661  42.2255209  21.8278951
  39.6505747  42.5298149  21.5240547  41.4301661  41.7905209  20.5828951
  42.4248766  41.4901375  20.9121674  40.9115259  40.9288663  20.1625814
  41.5531661  42.8745209  19.5228951  40.5539246  43.1158332  19.1604235
  41.9949265  43.7578094  19.9841448  42.4201661  42.4245209  18.3568951
  42.5863158  43.2693145  17.6884513  43.3775811  42.0707410  18.7393815
  41.7911661  41.3455209  17.5998951  40.8136704  41.1712897  17.7849486
  42.4111661  40.5885209  16.6998951  43.6961661  40.7805209  16.4218951
  44.2093892  41.5085553  16.8979919  44.1538331  40.1975552  15.7357525
  41.7431661  39.6335209  16.0698951  40.7657083  39.4848125  16.2762006
  42.2144435  39.0585727  15.3862059  40.4801661  41.0435209  22.7748951
  41.2161661  40.9165209  23.7568951  39.4531661  40.3005209  22.3898951
  38.7700977  40.5573182  21.6916316  39.2751661  39.0375209  23.1008951
  39.1653436  39.2270207  24.1686629  38.0241661  38.3145209  22.6018951
  37.2019307  39.0286057  22.5559496  38.2203817  37.9224347  21.6039633
  37.6171661  37.1635209  23.5038951  38.4541661  36.3565209  23.9158951
  36.3281661  37.0805209  23.8158951  36.0033744  36.3335873  24.4131390
  35.6791497  37.7647513  23.4543604  40.4991661  38.1375209  22.9608951
  41.0301661  37.9725209  21.8618951  40.9171661  37.5735209  24.1028951
  40.4164699  37.6856420  24.9728557  42.1611661  36.8165209  24.1148951
  42.9907526  37.4210929  23.7483186  42.4911661  36.2945209  25.5308951
  42.4834081  37.1331060  26.2271819  41.4611661  35.2525209  25.9758951
  41.4686687  34.4133575  25.2803025  41.7114252  34.8973830  26.9755692
  40.4691631  35.7040256  25.9890331  43.9101661  35.7135209  25.5698951
  43.8930935  34.7832969  25.0020108  44.5651903  36.4295935  25.0736260
  44.4291661  35.4405209  26.9748951  43.7748682  34.7241294  27.4716619
  45.4377676  35.0312785  26.9170760  44.4469628  36.3704263  27.5432781
  42.0681661  35.6515209  23.1308951  43.0781661  35.2295209  22.5598951
  40.8601661  35.1635209  22.8458951  40.0455118  35.5826747  23.2710395
  40.6691661  34.0085209  21.9758951  41.4932180  33.3075717  22.1089661
  39.3581661  33.2915209  22.3098951  38.5255279  33.9936325  22.2668584
  39.1844632  32.4790244  21.6043622  39.3351661  32.6805209  23.6838951
  40.2381661  31.6865209  24.0348951  40.9691200  31.3488633  23.3001885
  40.2181661  31.1215209  25.3078951  40.9340890  30.3430533  25.5716057
  39.2861661  31.5505209  26.2398951  39.2652636  31.1089439  27.2362247
  38.3801661  32.5425209  25.9028951  37.6480562  32.8846926  26.6343551
  38.4051661  33.1025209  24.6288951  37.6907223  33.8811629  24.3617122
  40.6751661  34.4285209  20.5098951  40.7221661  33.5825209  19.6148951
  40.6771661  35.6605209  20.2808951  40.6200238  36.3298749  21.0350830
  40.7041661  36.1625209  18.9108951  40.4575129  35.3574327  18.2187288
  39.6871661  37.2905209  18.7308951  39.9017098  38.0445998  19.4881503
  39.8464508  37.7158210  17.7400125  38.2381661  36.8375209  18.8618951
  38.0297714  36.1072261  18.0800116  38.1036867  36.3720434  19.8382905
  37.2521661  37.9825209  18.7308951  37.6091661  39.1515209  18.9078951
  36.0021661  37.6555209  18.4208951  35.3041804  38.3786778  18.3210878
  35.7557459  36.6853080  18.2864878  42.1001661  36.6495209  18.5308951
  42.3161661  37.1125209  17.4088951  43.0221661  36.5345209  19.4468951
  42.7986952  36.2185552  20.3798076  44.4011661  36.9105209  19.1558951
  44.4172482  37.8394552  18.5858761  45.1871661  37.1185209  20.4518951
  45.1222392  36.1538344  20.9551481  46.2251671  37.3208680  20.1878690
  44.6761661  38.2155209  21.3858951  43.6593878  37.9736701  21.6953637
  45.5701661  38.3245209  22.6178951  46.5870816  38.5668257  22.3092363
  45.1929331  39.1099042  23.2728524  45.5699279  37.3747952  23.1527983
  44.6061661  39.5515209  20.6528951  43.9280915  39.4655983  19.8038182
  44.2404165  40.3208927  21.3328918  45.5999022  39.8240412  20.2974793
  45.0841661  35.8495209  18.2968951  44.7611661  34.6635209  18.3948951
  46.0171661  36.3455209  17.3758951  46.1044284  37.3225200  17.1351514
  46.8771661  35.3855209  16.6928951  46.2687910  34.5998190  16.2449538
  47.6971661  36.0665209  15.5818951  48.2204865  35.2971155  15.0142232
  46.7991661  36.8665209  14.6448951  46.2758293  37.6364741  15.2118080
  47.4067981  37.3356577  13.8710778  46.0719337  36.2002013  14.1809428
  48.6551661  36.9505209  16.1778951  49.1688945  37.3774722  15.4884053
  47.8191661  34.7035209  17.6788951  47.9681661  35.1535209  18.8158951
  48.4151661  33.6605209  17.2858951  48.2105975  33.2789410  16.3733998
  49.3681661  32.9525209  18.1338951  48.8707791  32.6230314  19.0461132
  49.9461661  31.7195209  17.4158951  50.4523730  32.0495986  16.5087547
  50.9361661  30.9765209  18.3088951  50.4305364  30.6457081  19.2160891
  51.3281513  30.1104534  17.7756279  51.7578192  31.6420387  18.5736082
  48.8761661  30.8305209  17.0678951  49.2330928  30.0601901  16.6197945
  50.5061661  33.8765209  18.5578951  50.8991661  33.8925209  19.7258951
  50.9871661  34.7115209  17.6448951  50.6216623  34.6907183  16.7035803
  52.0731661  35.6385209  17.9448951  52.9023421  35.0998439  18.4035818
  52.5741661  36.3085209  16.6648951  52.9814495  35.5441245  16.0031417
  51.7357786  36.8034820  16.1747728  53.5801661  37.2635209  16.9588951
  53.8812007  37.6723273  16.1441219  51.6311661  36.7005209  18.9448951
  52.3811661  37.0485209  19.8608951  50.4441661  37.2285209  18.7528951
  49.8906045  36.9770203  17.9464112  49.9161661  38.2365209  19.6678951
  50.6233716  39.0613173  19.7554774  48.5851661  38.7865209  19.1518951
  47.9592953  37.9315561  18.8961216  48.1253565  39.3409267  19.9700084
  48.7231661  39.6945209  17.9388951  49.2069134  40.6137174  18.2692999
  49.3639089  39.1860352  17.2184854  47.3921661  40.0295209  17.2848951
  47.2591661  41.1345209  16.7088951  46.4751661  39.1805209  17.3488951
  49.7391661  37.6665209  21.0728951  50.1001661  38.3125209  22.0588951
  49.1761661  36.4955209  21.1248951  48.8233379  36.0518854  20.2889531
  48.9891661  35.8135209  22.4018951  48.4146079  36.4470389  23.0776444
  48.2331661  34.4995209  22.2028951  47.2635154  34.7480486  21.7714897
  48.8048486  33.9036742  21.4913855  48.0291661  33.7025209  23.4828951
  48.9636519  33.7064983  24.0439846  47.2507327  34.1884829  24.0710995
  47.6201661  32.2655209  23.1888951  47.3847014  31.7745649  24.1331501
  46.7318174  32.2827524  22.5575165  48.7301661  31.4995209  22.4818951
  49.0236401  32.0614358  21.5952017  49.5797700  31.4226760  23.1603988
  48.2891661  30.1305209  22.0798951  47.5021821  30.2015158  21.4508358
  49.0494921  29.6547050  21.6155638  48.0175882  29.6095282  22.9014248
  50.3291661  35.5485209  23.0838951  50.4901661  35.8225209  24.2748951
  51.3191661  34.9725209  22.3998951  51.1248344  34.6873314  21.4506841
  52.6371661  34.6825209  22.9528951  52.5374499  34.0340144  23.8232945
  53.5111661  33.9765209  21.9148951  53.4543135  34.5523846  20.9911808
  54.5370886  33.9816479  22.2830757  53.0771661  32.5465209  21.6468951
  52.2671661  31.9975209  22.4268951  53.5501661  31.9595209  20.6498951
  53.3221661  35.9565209  23.4378951  53.9951661  35.9535209  24.4708951
  53.1131661  36.9855209  22.6378951  52.6293286  36.9151425  21.7541262
  53.6611661  38.2825209  23.0258951  54.7365470  38.1967044  23.1817497
  53.4071661  39.3215209  21.9328951  53.8292909  38.9270581  21.0086068
  52.3268687  39.4192849  21.8256591  54.0131661  40.6865209  22.2248951
  53.5652825  41.0743706  23.1398124  55.0864430  40.5636935  22.3701267
  53.7641661  41.6645209  21.0838951  54.3615846  42.5592692  21.2588686
  54.0781379  41.1952235  20.1515426  52.2921661  42.0475209  20.9888951
  51.7102032  41.1392332  20.8325845  51.9961749  42.5105762  21.9302071
  52.0401661  43.0005209  19.8638951  52.3139708  42.5714739  18.9915136
  51.0573736  43.2311491  19.8318099  52.5790048  43.8424028  20.0087638
  53.0671661  38.7575209  24.3488951  53.7931661  39.2035209  25.2378951
  51.7751661  38.7005209  24.4738951  51.2161781  38.4053580  23.6861702
  51.0901661  39.0925209  25.6988951  51.2720069  40.1480844  25.9009321
  49.5791661  38.8725209  25.5658951  49.1505894  39.6191537  24.8973438
  49.3767131  37.8757515  25.1740233  48.8341661  38.9825209  26.8678951
  48.1981661  37.8775209  27.4168951  48.2450564  36.9228570  26.8929504
  47.5061661  37.9775209  28.6218951  47.0112718  37.1029552  29.0441688
  47.4481661  39.1935209  29.2838951  46.9066899  39.2775576  30.2261484
  48.0791661  40.3025209  28.7468951  48.0363022  41.2594063  29.2671194
  48.7681661  40.1955209  27.5428951  49.2637663  41.0689453  27.1190906
  51.6271661  38.3105209  26.8918951  51.9981661  38.9015209  27.9098951
  51.7191661  37.0075209  26.7948951  51.4168958  36.5664027  25.9380715
  52.1941661  36.1565209  27.8808951  51.6147602  36.3512008  28.7833848
  52.0401661  34.6795209  27.5098951  52.6548822  34.5705759  26.6163883
  52.4636532  34.0814345  28.3167726  50.6181661  34.1995209  27.2118951
  50.2182756  34.7690794  26.3729722  50.6231661  32.7155209  26.8618951
  51.0225223  32.1452307  27.7005742  49.6049876  32.3876955  26.6522676
  51.2455694  32.5512396  25.9822780  49.7021661  34.4715209  28.3988951
  49.6783992  35.5421054  28.6023246  48.6951966  34.1235179  28.1686614
  50.0767466  33.9437812  29.2759807  53.6511661  36.4615209  28.2118951
  54.0231661  36.5305209  29.3848951  54.4371661  36.6685209  27.2108951
  54.0967459  36.5699582  26.2651156  55.8471661  36.9915209  27.4088951
  56.3006153  36.2222308  28.0339357  56.5781661  37.0245209  26.0678951
  56.1412887  37.7963532  25.4342444  57.6326657  37.2451001  26.2336532
  56.4828624  36.0556897  25.5776069  56.0101661  38.3255209  28.1328951
  56.8521661  38.4555209  29.0238951  55.2171661  39.3055209  27.7858951
  54.5452094  39.1710680  27.0439410  55.3031661  40.6185209  28.4098951
  56.3300314  40.9812826  28.3646080  54.3981661  41.6195209  27.6858951
  53.4538554  41.1148989  27.4816083  54.2244493  42.4525210  28.3670951
  54.9801661  42.1395209  26.3938951  56.1671661  41.6195209  25.8838951
  56.6720496  40.8246445  26.4328610  56.7101661  42.0975209  24.6948951
  57.6405437  41.6848731  24.3047397  56.0571661  43.1025209  24.0058951
  56.5891661  43.5785209  22.8298951  57.4092216  43.1431479  22.5858479
  54.8761661  43.6345209  24.4908951  54.3620234  44.4271421  23.9472873
  54.3451661  43.1505209  25.6818951  53.4154389  43.5645557  26.0721290
  54.9221661  40.5475209  29.8848951  55.5461661  41.1985209  30.7258951
  53.8841661  39.7485209  30.2358951  53.3042134  39.2937929  29.5452602
  53.5521661  39.5685209  31.6438951  53.3390033  40.5356865  32.0991440
  52.3191661  38.6745209  31.7948951  52.5673152  37.7879174  31.2114095
  52.2249945  38.4023593  32.8461609  50.9951661  39.2565209  31.2988951
  51.0474724  39.3897849  30.2183371  49.8421661  38.3175209  31.6398951
  49.7889325  38.1841279  32.7203910  48.9061732  38.7451940  31.2805711
  50.0064262  37.3513888  31.1627077  50.7591661  40.6395209  31.8978951
  51.5698738  41.3063563  31.6043253  49.8121335  41.0372418  31.5331370
  50.7266266  40.5645438  32.9848259  54.7281661  38.9665209  32.4068951
  55.0591661  39.4195209  33.5048951  55.2761661  37.9785209  31.7538951
  54.9459117  37.6092418  30.8737450  56.4101661  37.3235209  32.3968951
  56.1437095  37.0417043  33.4155606  56.8091661  36.0615209  31.6288951
  55.9102685  35.4839824  31.4131835  57.2837542  36.3570853  30.6932093
  57.7721661  35.1865209  32.4048951  57.5131661  34.8235209  33.5538951
  58.8931661  34.8405209  31.7808951  59.5705570  34.2579723  32.2519349
  59.0626679  35.1616726  30.8384347  57.6041661  38.2655209  32.5248951
  58.2871661  38.2735209  33.5498951  57.8441661  39.0055209  31.4858951
  57.3459728  38.8900787  30.6149325  58.9001661  40.0105209  31.5508951
  59.8570896  39.5279886  31.7497901  59.0011661  40.7695209  30.2248951
  59.2475981  39.9952214  29.4983755  58.0185024  41.1820610  29.9962410
  60.0491661  41.8825209  30.1588951  59.8479239  42.6084104  30.9467319
  61.4481661  41.3045209  30.3458951  61.6503228  40.5788371  29.5581042
  62.1833032  42.1077916  30.2965961  61.5121002  40.8132732  31.3168166
  59.9491661  42.6335209  28.8348951  58.9573322  43.0758325  28.7414860
  60.7019492  43.4212800  28.8056626  60.1166601  41.9408378  28.0101316
  58.6471661  40.9895209  32.6928951  59.5541661  41.2895209  33.4728951
  57.4421661  41.4855209  32.8218951  56.7453263  41.2382639  32.1338708
  57.0701661  42.4215209  33.8778951  57.7065590  43.3036067  33.8069863
  55.6151661  42.8555209  33.7178951  54.9649139  41.9841891  33.7956952
  55.3602411  43.5695561  34.5010089  55.4800937  43.3231040  32.7425896
  57.2891661  41.8075209  35.2578951  57.7241661  42.4915209  36.1878951
  56.9731661  40.5295209  35.4288951  56.5618508  40.0486264  34.6417106
  57.1301661  39.7975209  36.6818951  56.6086017  40.3214951  37.4828450
  56.5461661  38.3885209  36.5578951  55.5180762  38.4959179  36.2120684
  57.1303107  37.8637777  35.8019059  56.5641661  37.5935209  37.8538951
  56.2498092  36.5724853  37.6376385  57.5833256  37.5852095  38.2403494
  55.6311661  38.2025209  38.8948951  56.0185290  39.1825665  39.1733904
  54.6436023  38.3163725  38.4478438  55.5281661  37.3265209  40.1358951
  55.1584653  36.3465957  39.8339541  56.5245872  37.2218888  40.5651927
  54.6071661  37.9135209  41.1538951  53.6837014  38.0101593  40.7564361
  54.5650055  37.3061111  41.9597337  54.9497907  38.8213623  41.4341299
  58.5961661  39.7215209  37.0968951  58.9061661  39.6245209  38.2848951
  59.4891661  39.8895209  36.1168951  59.2199957  40.1238669  35.1720519
  60.9021661  39.6615209  36.3968951  61.0313350  39.3846022  37.4431888
  61.4461661  38.5305209  35.5208951  61.1646637  38.7232647  34.4856630
  62.5328424  38.5143913  35.6044095  60.9091661  37.1715209  35.9238951
  61.3241661  36.6015209  36.9378951  59.9831661  36.6415209  35.1348951
  59.5915585  35.7375436  35.3575344  59.6742381  37.1445453  34.3153642
  61.7251661  40.9295209  36.1948951  62.9561661  40.8845209  36.1998951
  61.0861661  41.9965209  35.9608951  60.0805891  41.9833648  35.8674017
  61.7821661  43.2655209  35.7718951  62.8590454  43.0969306  35.7746469
  61.3901661  43.9205209  34.4348951  60.3240888  44.1466777  34.4556924
  62.1781661  45.2065209  34.2028951  63.2443828  44.9810786  34.1815092
  61.8816018  45.6483719  33.2516242  61.9721863  45.9100123  35.0096000
  61.6611661  43.0095209  33.3618951  61.4172568  43.4164633  32.5273255
  61.4811661  44.2215209  36.9188951  60.3191661  44.5575209  37.1678951
  62.5591661  44.6195209  37.5718951  63.9881661  44.0655209  37.5448951
  64.5506336  44.4721567  36.7044321  63.9856088  42.9770580  37.4870945
  64.4871661  44.5675209  38.8698951  65.5559405  44.7616837  38.7797772
  64.3214247  43.7883836  39.6139220  63.7341661  45.8105209  39.2218951
  64.2072976  46.6692697  38.7456639  63.6668183  45.9828134  40.2960828
  62.3361661  45.5975209  38.6388951  61.6479740  45.1557129  39.3595167
  61.7551661  46.9125209  38.1208951  62.1041661  47.3545209  37.0228951
  60.8271661  47.4725209  38.8708951  60.4366269  46.9900016  39.6676093
  60.3011661  48.7915209  38.5348951  59.9653701  48.8012588  37.4979547
  59.1171661  49.1425209  39.4348951  58.3125680  48.4306148  39.2507463
  59.4335141  49.0713041  40.4755450  58.6551661  50.4555209  39.1708951
  57.9127904  50.6551748  39.7458876  61.3791661  49.8635209  38.6558951
  62.0121661  49.9985209  39.7038951  61.4991661  50.7245209  37.6368951
  60.8900697  50.6501944  36.8346630  62.5361661  51.7495209  37.6248951
  63.4105321  51.3949339  38.1706527  62.9541661  52.0755209  36.1918951
  62.0524989  52.3545594  35.6467044  63.6295237  52.9298650  36.2375943
  63.6441661  50.9205209  35.4748951  62.9781374  50.0577217  35.4840624
  63.8411761  51.2158446  34.4443258  64.9571661  50.5265209  36.1258951
  65.7111661  51.3825209  36.6018951  65.2401661  49.2285209  36.1498951
  66.1012119  48.9102199  36.5710674  64.5929372  48.5661337  35.7468577
  62.0641661  53.0155209  38.3338951  62.8651661  53.7275209  38.9438951
  60.8171661  53.2295209  38.3508951  60.1567576  52.5343845  38.0334913
  60.3051661  54.5305209  38.7678951  61.1356579  55.2137575  38.9455761
  59.4051661  55.1265209  37.6838951  58.6387416  54.3949522  37.4279660
  58.9312527  56.0265349  38.0756616  60.1681661  55.4895209  36.4248951
  61.3251661  55.9115209  36.4868951  59.5231661  55.3305209  35.2748951
  59.9842102  55.5571300  34.4053052  58.5745713  54.9837235  35.2752084
  59.5531661  54.4395209  40.0908951  59.3761661  55.4465209  40.7808951
  59.2041661  53.2305209  40.4498951  59.4501878  52.3766615  39.9697943
  58.3411661  53.1405209  41.6228951  58.2917394  54.1095404  42.1195414
  56.9231661  52.7255209  41.2168951  57.0072266  51.8124525  40.6275403
  56.3722307  52.5160901  42.1337969  56.1891661  53.7735209  40.4178951
  55.5311661  54.8265209  41.0498951  55.5555639  54.8828020  42.1381674
  54.8521661  55.7945209  40.3188951  54.3406048  56.6139289  40.8238479
  54.8301661  55.7115209  38.9378951  54.1591661  56.6665209  38.2078951
  53.7468784  57.3373524  38.7570796  55.4761661  54.6765209  38.2858951
  55.4579360  54.6109839  37.1980196  56.1521661  53.7155209  39.0288951
  56.6657497  52.8976557  38.5234957  58.9021661  52.1505209  42.6378951
  59.5291661  51.1565209  42.2628951  58.6301661  52.5205209  43.9838951
  58.2855553  53.4528697  44.1629719  58.8731661  51.6425209  45.1228951
  59.0889863  50.6230532  44.8031978  60.0481661  52.1475209  45.9878951
  60.1415255  51.5064403  46.8644787  61.3551661  52.1195209  45.1948951
  61.2627273  52.7607800  44.3183435  62.1698388  52.4793060  45.8233564
  61.5659899  51.0984858  44.8768664  59.7641661  53.5575209  46.5048951
  58.8577468  53.5474106  47.1102081  60.6025278  53.8979486  47.1126437
  59.6293951  54.2341886  45.6610596  57.6061661  51.5285209  45.9668951
  56.6521661  52.2855209  45.7718951  57.6211661  50.5145209  46.8928951
  58.3906311  49.8700707  47.0056199  56.4361661  50.3275209  47.7208951
  55.6593686  51.0480021  47.4647865  55.8741661  48.8945209  47.5848951
  55.0299491  48.7802265  48.2648472  55.4121661  48.6295209  46.1488951
  56.2560024  48.7431815  45.4683643  55.0198777  47.6153066  46.0741976
  54.6313558  49.3412118  45.8806965  56.9211661  47.8645209  48.0238951
  57.7196879  47.8811731  47.2821495  57.3129397  48.1940060  48.9862113
  56.3801661  46.4475209  48.1548951  55.9886119  46.1171510  47.1927928
  57.1821310  45.7794550  48.4689643  55.5818617  46.4299845  48.8968535
  56.7721661  50.6275209  49.1798951  57.9171661  50.4595209  49.6068951
  55.8031661  51.0715209  49.8718951  54.9095770  51.3044394  49.4628147
  55.9751661  51.2555209  51.3108951  56.9671591  51.6611815  51.5096126
  54.9341661  52.2185209  51.8698951  53.9416792  51.9162451  51.5356824
  54.9706764  52.2025861  52.9591669  55.2301661  53.6305209  51.3718951
  56.3921661  53.8575209  50.9398951  54.2921661  54.4695209  51.4278951
  55.8311661  49.9295209  52.0548951  55.0101661  49.0885209  51.6818951
  56.6271661  49.7255209  53.0948951  57.2940057  50.4346247  53.3643319
  56.6041661  48.4755209  53.8478951  55.8560859  47.8055808  53.4240375
  57.9751661  47.7725209  53.8058951  57.9409088  46.9016107  54.4604499
  58.3221661  47.3295209  52.3888951  58.3570663  48.2000058  51.7338091
  59.2944069  46.8367262  52.3895529  57.5634533  46.6346716  52.0288399
  58.9831661  48.6785209  54.2728951  59.8392900  48.2448635  54.2485336
  56.2031661  48.7275209  55.2978951  56.1361661  47.7925209  56.0988951
  55.9001661  50.0285209  55.5398951  56.0039746  50.7400534  54.8306387
  55.4111661  50.4275209  56.8508951  54.8861316  49.5790705  57.2897228
  56.2709913  50.6820605  57.4705802  54.4701661  51.6175209  56.7988951
  54.4161661  52.3285209  55.7928951  53.6551661  51.7585209  57.9078951
  53.6128694  51.0654845  58.6413873  52.7851661  52.9255209  58.0078951
  52.2564364  53.0699655  57.0657275  51.7481661  52.7555209  59.1328951
  51.0561296  53.5969991  59.0997267  50.9711661  51.4515209  58.9718951
  51.6625298  50.6095047  59.0054296  50.2459510  51.3579236  59.7802277
  50.4493951  51.4546586  58.0148968  52.4221661  52.7445209  60.3988951
  51.7784604  52.6386323  61.1031896  53.6031661  54.1905209  58.2538951
  54.7761661  54.1145209  58.6248951  52.9951661  55.2825209  57.9378951
  52.0766964  55.2981876  57.5180531  53.6801661  56.5515209  58.1488951
  54.5807690  56.5909539  57.5361482  52.7721661  57.7235209  57.7608951
  52.3369416  57.4891144  56.7894362  51.9807393  57.7840610  58.5079416
  53.4921661  59.0475209  57.6828951  53.2451661  60.0525209  58.6148951
  52.5214075  59.8670592  59.4085429  53.9031661  61.2755209  58.5458951
  53.7009444  62.0552937  59.2801720  54.8211661  61.4985209  57.5348951
  55.4761661  62.7075209  57.4628951  55.2194061  63.3153506  58.1601878
  55.0841661  60.5165209  56.5978951  55.8066034  60.6929677  55.8009940
  54.4201661  59.2975209  56.6768951  54.6231293  58.5177761  55.9427942
  54.1241661  56.6965209  59.5998951  55.2181661  57.1965209  59.8728951
  53.2711661  56.3395209  60.4388951  52.3344218  56.0709613  60.1734049
  53.6111661  56.3525209  61.8578951  53.8792760  57.3647261  62.1606443
  52.4291661  55.8775209  62.7218951  52.1284016  54.8852348  62.3857268
  52.8131661  55.8195209  64.1958951  53.1136241  56.8116074  64.5329250
  51.9585034  55.4807987  64.7814871  53.6423550  55.1246238  64.3288023
  51.3331661  56.7855209  62.5608951  50.5935234  56.4927932  63.0983330
  54.8291661  55.4735209  62.1298951  55.7431661  55.8775209  62.8498951
  54.9201661  54.3485209  61.5928951  54.1382539  54.0392386  61.0333801
  56.0511661  53.4415209  61.7628951  56.2541546  53.2992059  62.8243287
  55.7441661  52.0795209  61.1368951  55.3827524  52.2627832  60.1250185
  56.6817143  51.5253267  61.0924846  54.7111661  51.2675209  61.9048951
  55.1418048  50.9668057  62.8599980  53.8381824  51.8956587  62.0822208
  54.2691661  50.0225209  61.1588951  54.1151661  50.0375209  59.9348951
  54.0641661  48.9335209  61.8928951  53.7688274  48.0763946  61.4476863
  54.2046754  48.9681529  62.8924746  57.3201661  54.0245209  61.1498951
  58.4311661  53.6495209  61.5338951  57.1241661  54.9375209  60.2248951
  56.1958540  55.1511471  59.8891871  58.2551661  55.6345209  59.6218951
  59.1019470  54.9540946  59.5319984  57.8891661  56.1475209  58.2258951
  56.9951602  56.7623076  58.3302501  58.7170168  56.7667361  57.8804446
  57.6281661  55.0415209  57.2158951  58.5322555  54.4388161  57.1294657
  56.8137895  54.4221633  57.5917793  57.1771661  55.6915209  55.5628951
  56.8491661  54.1385209  54.6838951  56.0415728  53.6020664  55.1820001
  56.5600051  54.3564121  53.6557852  57.7485966  53.5227899  54.6850892
  58.7101661  56.7965209  60.4988951  59.5341661  57.6105209  60.0808951
  58.3101661  56.8825209  61.6628951  57.7115229  56.1458380  62.0078934
  58.5961661  58.0105209  62.5428951  57.9433565  57.9720944  63.4149399
  60.0491661  57.9675209  63.0178951  60.3014959  56.9418667  63.2870834
  60.6916623  58.2968399  62.2012876  60.2971661  58.8585209  64.2188951
  59.4011661  59.0815209  65.0378951  61.5151661  59.3715209  64.3348951
  61.7344571  59.9722008  65.1166847  62.2175092  59.1590154  63.6408804
  58.3021661  59.3425209  61.8578951  59.1381661  60.2465209  61.8668951
  57.0641661  59.3785209  61.2298951  56.5203437  58.5287094  61.1832377
  56.5381661  60.5735209  60.5768951  55.5957272  60.3392446  60.0818974
  56.2891661  61.6795209  61.6038951  57.2171044  61.8763817  62.1408082
  55.9769450  62.5808708  61.0764613  55.2161661  61.3105209  62.6098951
  54.3221661  60.5135209  62.3178951  55.3001661  61.8875209  63.8038951
  54.6115261  61.6777362  64.5123194  56.0522698  62.5332309  63.9975432
  57.4781661  61.0705209  59.4808951  57.7131661  62.2745209  59.3588951
  58.1561661  60.0795209  58.8558951  58.1646232  59.1232918  59.1809391
  58.9101661  60.4065209  57.6568951  58.6739845  59.6631483  56.8955052
  58.5908124  61.3907944  57.3143775  60.4121661  60.4245209  57.8808951
  61.1871661  60.4165209  56.9228951  60.8561661  60.4115209  59.1648951
  60.2129483  60.3579624  59.9417487  62.2821661  60.5255209  59.4538951
  62.7368605  61.2577114  58.7866251  62.5011661  60.9785209  60.8988951
  62.0004335  60.2777932  61.5669870  63.5706946  60.9790800  61.1091535
  61.9791661  62.2805209  61.1028951  62.1265380  62.5452446  62.0138302
  63.0041661  59.2045209  59.2128951  64.2251661  59.1785209  59.0508951
  62.2441661  58.1545209  59.1378951  61.2545273  58.2442513  59.3186237
  62.7801661  56.8245209  58.8668951  63.8022717  56.9075894  58.4974373
  62.7881661  55.9775209  60.1408951  63.2927514  56.5357530  60.9294824
  61.7574715  55.7823994  60.4370307  63.4981661  54.6515209  59.9558951
  64.4361661  54.5405209  59.1618951  63.0561661  53.6355209  60.6888951
  63.4932043  52.7288108  60.6053834  62.2851283  53.7744846  61.3263043
  61.9951661  56.1175209  57.7648951  61.1591661  55.2595209  58.0478951
  62.3091661  56.5305209  56.4718951  63.2251661  57.6675209  56.0458951
  64.2702138  57.3675301  56.1232327  63.0541998  58.5493762  56.6633098
  62.7871661  57.8705209  54.6238951  63.6599393  58.1551955  54.0362502
  62.0570217  58.6796009  54.6044002  62.1861661  56.5985209  54.1258951
  62.9747117  55.9526176  53.7397556  61.4324851  56.7523550  53.3536260
  61.5461661  55.9575209  55.3598951  60.5027031  56.2466073  55.4852431
  61.6481661  54.4345209  55.2998951  62.7291661  53.8755209  55.4988951
  60.5541661  53.7975209  55.0468951  59.7043894  54.3410085  54.9959036
  60.4611661  52.3505209  54.8798951  61.4547660  51.9072409  54.9459354
  59.5801661  51.7395209  55.9698951  58.5949458  52.1977911  55.8837062
  59.5032263  50.6721747  55.7626460  60.1121661  51.9445209  57.3778951
  61.0472294  51.3924143  57.4724243  60.3032282  53.0084274  57.5182530
  58.9381661  51.3675209  58.6648951  59.0741661  49.5725209  58.4388951
  60.1047705  49.2613579  58.6095739  58.4199640  49.0658648  59.1484158
  58.7795869  49.3103866  57.4227209  59.9091661  51.9965209  53.5008951
  58.6971661  52.0335209  53.2848951  60.8451661  51.7385209  52.5248951
  61.8267639  51.8037051  52.7536226  60.4751661  51.4195209  51.1508951
  59.4186099  51.1554831  51.1053760  60.7191661  52.6245209  50.2338951
  61.7528578  52.9586692  50.3229212  60.5124119  52.3566663  49.1977452
  59.8541661  53.8125209  50.5518951  58.5211661  53.8455209  50.1608951
  58.1060294  52.9959046  49.6187573  57.7181661  54.9445209  50.4528951
  56.6738230  54.9595149  50.1410887  58.2511661  56.0225209  51.1428951
  57.6265615  56.8852163  51.3746829  59.5791661  56.0025209  51.5378951
  60.0009029  56.8489564  52.0799147  60.3741661  54.9005209  51.2418951
  61.4190000  54.8832253  51.5519321  61.2571661  50.2115209  50.6448951
  62.3411661  49.9135209  51.1488951  60.5621661  49.5575209  49.6918951
  59.6297780  49.7976431  49.3867835  61.2001661  48.3845209  49.1068951
  62.2750369  48.4240507  49.2835004  60.6491661  47.1025209  49.7318951
  60.8212337  47.1674175  50.8062695  59.5769614  47.0832558  49.5366878
  61.2851661  45.8305209  49.1928951  61.0808567  45.7704874  48.1238982
  62.3616022  45.8897058  49.3537821  60.7361661  44.5895209  49.8848951
  60.9505585  44.6502866  50.9518733  59.6577246  44.5428916  49.7336039
  61.3361661  43.3675209  49.3558951  61.2621796  43.2193697  48.3595635
  61.9641661  42.4535209  50.0878951  62.0871661  42.6035209  51.4028951
  61.6999137  43.4203792  51.8533151  62.5673145  41.8999502  51.9456155
  62.4731661  41.3785209  49.5028951  62.3811699  41.2595574  48.5041537
  62.9506620  40.6833108  50.0585743  61.0041661  48.3535209  47.5938951
  59.9581661  48.7655209  47.0908951  62.0971661  47.7595209  46.8948951
  62.9675530  47.5262884  47.3511063  61.9901661  47.5415209  45.4558951
  61.6403538  48.4525902  44.9704229  63.3501661  47.1645209  44.8658951
  63.7367146  46.2961804  45.3994345  63.2144232  46.9131939  43.8139880
  64.3641661  48.2875209  44.9688951  64.0251661  49.4625209  44.8038951
  65.6141661  47.9335209  45.2458951  66.3302578  48.6412608  45.3260002
  65.8427423  46.9582506  45.3751297  60.9551661  46.4705209  45.1268951
  60.7041661  45.5745209  45.9338951  60.4731661  46.6825209  43.9188951
  60.7082582  47.4442176  43.2986942  59.4571661  45.7295209  43.4888951
  59.6692333  44.7304991  43.8697914  58.0461661  46.1645209  43.9428951
  58.0686756  46.3729751  45.0125402  57.5971661  47.4175209  43.1888951
  57.5739631  47.2096906  42.1191433  56.6010307  47.7064606  43.5240499
  58.2961209  48.2304898  43.3854734  57.0461661  45.0185209  43.7488951
  56.8469494  44.9422630  42.6799713  57.5316644  44.1054892  44.0935165
  55.7341661  45.2085209  44.4968951  55.2478302  46.1211755  44.1524552
  55.0812752  44.3562366  44.3086292  55.9325458  45.2844040  45.5660009
  59.5021661  45.5795209  41.9698951  59.8891661  46.5085209  41.2588951
  59.1361661  44.3855209  41.4678951  58.9610825  43.5678959  42.0344058
  59.0531661  44.2525209  40.0158951  59.8704710  44.8011478  39.5477920
  59.1531661  42.7805209  39.6048951  59.2045655  42.7242359  38.5175638
  60.0626068  42.3593237  40.0333933  57.9701661  41.9595209  40.0768951
  56.8401661  42.1575209  39.6238951  58.2211661  41.0305209  40.9918951
  57.4689667  40.4544246  41.3417649  59.1631244  40.9042847  41.3337720
  57.7661661  44.8665209  39.4708951  56.8421661  45.1575209  40.2308951
  57.7131661  45.0845209  38.1408951  58.4746915  44.7337088  37.5777705
  56.6511661  45.8375209  37.4778951  56.5387877  46.8333359  37.9066408
  56.9171661  45.9795209  35.9628951  57.1514901  44.9973820  35.5522922
  55.6921661  46.5495209  35.2508951  55.4574901  47.5319228  35.6606690
  55.9008190  46.6414070  34.1850051  54.8426543  45.8826232  35.3981317
  58.1411661  46.8605209  35.7178951  59.0140006  46.4103792  36.1907952
  58.3156203  46.9509957  34.6457572  57.9683417  47.8496023  36.1421010
  55.3071661  45.1515209  37.7158951  54.3161661  45.8095209  38.0368951
  55.2611661  43.8555209  37.6588951  56.0963058  43.3282694  37.4475967
  54.0121661  43.1265209  37.8458951  53.2269865  43.5780271  37.2394840
  54.1761661  41.6635209  37.4238951  54.6331254  41.6595545  36.4343135
  54.8523858  41.1930400  38.1376701  52.8761661  40.8955209  37.3808951
  52.3061661  40.3835209  38.5448951  52.8131629  40.5480578  39.4956745
  51.1121661  39.6735209  38.5078951  50.6765239  39.2751795  39.4242148
  50.4761661  39.4745209  37.2968951  49.2911661  38.7725209  37.2568951
  49.0040240  38.4716633  38.1221313  51.0201661  39.9735209  36.1278951
  50.5183143  39.8156219  35.1732679  52.2151661  40.6805209  36.1758951
  52.6506037  41.0777462  35.2589947  53.5491661  43.2005209  39.2978951
  52.4061661  43.5715209  39.5718951  54.4681661  42.9465209  40.2158951
  55.4226534  42.7512421  39.9495878  54.1181661  42.8845209  41.6318951
  53.2088685  42.2979374  41.7630316  55.2451661  42.2255209  42.4318951
  56.1867368  42.6399213  42.0715949  55.1107345  42.4888291  43.4810362
  55.2701661  40.7135209  42.2888951  54.2531661  40.1245209  41.8638951
  56.3131661  40.1075209  42.6098951  53.8211661  44.2745209  42.1878951
  53.1951661  44.4075209  43.2408951  54.2741661  45.2605209  41.4798951
  54.9026330  45.1401971  40.6984536  53.8951661  46.6165209  41.8598951
  54.2478052  46.8293507  42.8690772  54.5151661  47.6355209  40.8998951
  55.5842295  47.5682386  41.1015777  54.3166921  47.3042534  39.8805964
  54.0561661  49.0855209  41.0628951  52.9743670  49.1325185  40.9379843
  54.4311661  49.6085209  42.4458951  55.5129298  49.5622643  42.5713808
  54.0980351  50.6414377  42.5469264  53.9508777  48.9961099  43.2090308
  54.6621661  49.9635209  39.9718951  54.3454120  49.5998535  38.9943920
  54.3250162  50.9917197  40.1031904  55.7495687  49.9270611  40.0376622
  52.3781661  46.7725209  41.8748951  51.8131661  47.3025209  42.8358951
  51.7391661  46.2485209  40.9058951  52.2350162  45.7428984  40.1857715
  50.2951661  46.3995209  40.7748951  49.9973715  47.3942275  41.1065219
  49.8641661  46.2205209  39.3148951  50.2727642  45.2926278  38.9146936
  48.7765902  46.1975318  39.2459742  50.3301661  47.3245209  38.4038951
  49.6021661  48.5025209  38.2908951  48.6864695  48.6198234  38.8704118
  50.0301661  49.5275209  37.4488951  49.4527221  50.4484317  37.3677628
  51.1951661  49.3725209  36.7128951  51.5331209  50.1701470  36.0513218
  51.9291661  48.2035209  36.8188951  52.8464365  48.0804550  36.2430738
  51.4941661  47.1835209  37.6628951  52.0704791  46.2620979  37.7462196
  49.5641661  45.3985209  41.6608951  48.4461661  45.6625209  42.1118951
  50.2261661  44.3005209  41.9678951  51.0851284  44.0402269  41.5047210
  49.6801661  43.3945209  42.9728951  48.6351505  43.1577607  42.7729301
  50.4811661  42.0745209  43.0418951  51.5376626  42.3092615  43.1715540
  50.0041661  41.2145209  44.2098951  48.9477933  40.9789701  44.0806928
  50.5809206  40.2901176  44.2404439  50.1427800  41.7596700  45.1435440
  50.3611661  41.3085209  41.7258951  50.7534125  41.9189639  40.9125045
  50.9309109  40.3815753  41.7911822  49.3134162  41.0776138  41.5335338
  49.6741661  44.0785209  44.3368951  48.6621661  44.0665209  45.0418951
  50.7221661  44.7055209  44.6348951  51.5108251  44.7105636  44.0039506
  50.8541661  45.3975209  45.9128951  50.6083019  44.7165478  46.7277114
  52.2881661  45.8975209  46.1088951  52.9846474  45.2184440  45.6170947
  52.4003460  46.8978228  45.6906704  52.7131661  45.9825209  47.5438951
  53.3371661  45.0135209  48.2778951  53.5546919  44.0748309  47.7683430
  53.5631661  45.4595209  49.5588951  54.0111910  44.9330251  50.2952207
  53.0821661  46.7355209  49.6738951  53.0791661  47.6035209  50.7708951
  53.5160618  47.2583133  51.7079397  52.5221661  48.8435209  50.5958951
  52.5037846  49.5469151  51.4283605  51.9711661  49.2325209  49.3628951
  51.5279666  50.2201345  49.2352504  51.9741661  48.3725209  48.2708951
  51.5394304  48.7229805  47.3347949  52.5371661  47.0985209  48.4208951
  49.8781661  46.5645209  46.0048951  49.2581661  46.7835209  47.0478951
  49.7431661  47.3525209  44.9588951  50.3239520  47.1882059  44.1490879
  48.8241661  48.4865209  44.9328951  49.0924943  49.1959634  45.7157046
  48.8891661  49.2015209  43.5818951  48.7711792  48.4433823  42.8076832
  48.0494097  49.8952533  43.5413412  50.1851661  49.9615209  43.3528951
  50.2682822  50.7320305  44.1193855  51.0135655  49.2601000  43.4522197
  50.2561661  50.7485209  41.6958951  49.0931661  52.1195209  41.9438951
  49.4503332  52.7579859  42.7519132  49.0179026  52.7032748  41.0264707
  48.1117718  51.7218912  42.2024621  47.3951661  48.0355209  45.2148951
  46.6661661  48.6945209  45.9588951  47.0241661  46.9455209  44.5758951
  47.7051661  46.5425209  43.9288951  45.6951661  46.3935209  44.8208951
  45.0101661  47.0985209  44.5978951  45.4461661  45.1795209  43.9218951
  45.6421661  45.4325209  42.9688951  46.0741661  44.4415209  44.1928951
  44.0471661  44.6575209  43.9928951  43.6671661  43.6625209  44.8668951
  44.2711661  43.2055209  45.5188951  42.3791661  43.4115209  44.7078951
  41.8491661  42.7365209  45.2128951  41.9121661  44.2075209  43.7608951
  42.9361661  44.9975209  43.2978951  42.8721661  45.6885209  42.5828951
  45.5211661  46.0045209  46.2848951  44.4891661  46.3025209  46.8908951
  46.5271661  45.3455209  46.8838951  46.4711506  46.3202764  46.6254122
  46.5321661  45.0055209  48.3018951  45.6802200  44.3654552  48.5312483
  47.8191661  44.2585209  48.6698951  47.6657252  43.2073835  48.4256306
  48.6195811  44.6620254  48.0497176  48.1981661  44.3865209  50.1268951
  49.2071661  45.2605209  50.5288951  49.7195920  45.8562892  49.7735280
  49.5631661  45.3795209  51.8668951  50.3541430  46.0651592  52.1707990
  48.9031661  44.6215209  52.8158951  49.2511661  44.7355209  54.1438951
  49.9592433  45.3663184  54.2932969  47.8981661  43.7475209  52.4428951
  47.3786011  43.1485888  53.1908476  47.5521661  43.6365209  51.0998951
  46.7609785  42.9512239  50.7957733  46.3921661  46.2545209  49.1638951
  45.5511661  46.3035209  50.0658951  47.2221661  47.2095209  48.9018951
  47.8746114  47.1114177  48.1371792  47.2831661  48.4195209  49.7108951
  47.5157592  48.1608125  50.7438857  48.3701661  49.3645209  49.1858951
  49.2819573  48.7781378  49.0723565  48.0461023  49.7241350  48.2092886
  48.6391661  50.5425209  50.0918951  48.2571661  51.8295209  49.7218951
  47.7557889  51.9767475  48.7653154  48.5061661  52.9185209  50.5518951
  48.2044711  53.9224323  50.2531578  49.1401661  52.7195209  51.7628951
  49.3881661  53.7945209  52.5868951  49.0796126  54.6266766  52.2209562
  49.5281661  51.4515209  52.1538951  50.0277798  51.2955787  53.1100168
  49.2761661  50.3695209  51.3158951  49.5793064  49.3662047  51.6151653
  45.9361661  49.1345209  49.7248951  45.4861661  49.6025209  50.7718951
  45.2751661  49.1435209  48.6148951  45.6728420  48.6988280  47.7999095
  43.9911661  49.8275209  48.4738951  44.0655174  50.8142902  48.9309044
  43.6401661  49.9985209  46.9988951  43.5532719  49.0185740  46.5295834
  42.6921073  50.5289102  46.9096093  44.4240154  50.5704101  46.5022842
  42.8831661  49.0705209  49.1988951  41.8981661  49.6675209  49.6378951
  43.0561661  47.7865209  49.3878951  43.9314848  47.3213446  49.1941748
  41.9311661  46.9795209  49.8508951  41.0321813  47.5938301  49.9013886
  41.6751661  45.8165209  48.8908951  40.8116342  45.2526725  49.2437220
  41.4657425  46.2182693  47.8995122  42.8031661  44.9605209  48.8248951
  42.6220984  44.2387876  48.2183349  42.1781661  46.4425209  51.2568951
  41.3171661  45.7705209  51.8298951  43.2921661  46.7395209  51.8248951
  43.9689349  47.3376432  51.3728629  43.6321661  46.1685209  53.1258951
  43.4240170  45.0985805  53.1250804  45.1161661  46.3775209  53.4318951
  45.3412811  45.8142948  54.3375434  45.6795188  45.9616462  52.5965616
  45.5061661  47.8335209  53.6308951  45.6288032  48.2924694  52.6498613
  44.6999308  48.3338780  54.1672992  46.8011661  47.9695209  54.4198951
  46.8420945  47.1878899  55.1784970  47.6471244  47.8610300  53.7411582
  46.8951661  49.2685209  55.0808951  47.4794745  49.9628934  54.6375781
  46.2711661  49.5915209  56.2108951  45.4921661  48.7125209  56.8288951
  45.3703886  47.7886708  56.4393168  45.0247011  48.9714894  57.6859315
  46.4281661  50.8015209  56.7248951  47.0203470  51.4726874  56.2569662
  45.9550296  51.0478135  57.5825550  42.7781661  46.7785209  54.2318951
  42.2371661  47.8745209  54.0718951  42.7301661  46.0685209  55.3668951
  43.1634577  45.1566027  55.3945159  42.0261661  46.5365209  56.5568951
  41.0416027  46.9126945  56.2789969  41.8481661  45.3945209  57.5588951
  42.8388430  45.0051314  57.7934892  41.3985605  45.8096765  58.4608932
  40.9751661  44.2705209  57.0298951  40.1301661  44.5205209  56.1418951
  41.1291661  43.1245209  57.5048951  42.7671661  47.6995209  57.2118951
  43.9681661  47.8765209  56.9978951  42.0451661  48.4785209  57.9678951
  41.0419037  48.3687558  58.0068237  42.6531661  49.5545209  58.7408951
  43.4661616  50.0028607  58.1698180  41.6221661  50.6515209  59.0748951
  40.7953454  50.1988815  59.6222388  42.2491661  51.7535209  59.9218951
  43.0758272  52.2069746  59.3749849  41.4998081  52.5136866  60.1425982
  42.6207195  51.3287959  60.8544493  41.1291661  51.2225209  57.8568951
  40.4868105  51.9061328  58.0609890  43.2611661  49.0155209  60.0308951
  42.6041661  48.2895209  60.7788951  44.4751661  49.3895209  60.2198951
  44.9741740  49.9360035  59.5325471  45.1831661  48.9855209  61.4278951
  44.8240894  48.0104417  61.7571116  46.6881661  48.8885209  61.1618951
  46.9964562  49.9253412  61.0275067  47.1640385  48.4812246  62.0539462
  47.1091661  48.0695209  59.9408951  46.6390665  48.4889866  59.0514258
  48.6241661  48.1025209  59.7778951  49.0949871  47.6827595  60.6668421
  48.9090627  47.5153582  58.9048690  48.9534817  49.1330805  59.6452355
  46.6101661  46.6325209  60.0628951  45.5224036  46.6297691  60.1326410
  46.9189012  46.0644122  59.1853780  47.0322712  46.1755324  60.9579302
  44.9191661  49.9655209  62.5668951  45.3231661  51.1285209  62.4958951
  44.2231661  49.5285209  63.6728951  43.9818679  48.5489652  63.7213211
  43.7771661  50.4055209  64.7518951  43.8224942  51.4445194  64.4255107
  42.3351661  50.0795209  65.1468951  42.3712140  49.0234421  65.4142849
  42.0838312  50.6687055  66.0288204  41.2701661  50.2965209  64.0678951
  41.5403982  49.7240608  63.1805593  39.9061661  49.8395209  64.5708951
  39.6350263  50.4118919  65.4580104  39.1592361  49.9998008  63.7933948
  39.9472375  48.7795318  64.8215674  41.2291661  51.7625209  63.6468951
  42.2011728  52.0541580  63.2490883  40.4671762  51.8995638  62.8796326
  40.9898189  52.3826081  64.5107839  44.6901661  50.2795209  65.9658951
  44.5061661  50.9815209  66.9628951  45.7921661  49.5285209  65.8488951
  46.0250911  49.1063824  64.9614018  46.6801661  49.2965209  66.9768951
  47.6893713  49.1540191  66.5905049  46.6571362  50.1804734  67.6142309
  46.2911661  48.0835209  67.8008951  45.1391661  47.6495209  67.7728951
  47.3441661  47.4825209  68.4998951  48.2621087  47.8994203  68.5605221
  47.1191661  46.2095209  69.1678951  48.0393914  45.9271574  69.6793201
  46.3241222  46.3465731  69.9008489  46.7241661  45.0985209  68.2128951
  47.3341661  44.9365209  67.1538951  45.5801661  44.2245209  68.5888951
  45.1357952  44.3293881  69.4898039  45.1031661  43.1695209  67.7008951
  45.8458457  42.9738338  66.9274399  44.8621661  41.8785209  68.4848951
  44.4042411  41.1442338  67.8221536  45.8198034  41.4986129  68.8408457
  44.0071661  42.1145209  69.5908951  43.8685537  41.2936995  70.0690568
  43.8221661  43.5865209  66.9838951  43.2061661  42.7785209  66.2868951
  43.4761661  44.9415209  67.0268951  44.0849809  45.6072921  67.4809795
  42.2091661  45.4205209  66.4848951  41.5088434  44.5901753  66.3944884
  41.5971661  46.4785209  67.4068951  42.3417060  47.2522974  67.5940574
  40.7334873  46.9189735  66.9087380  41.1491661  45.9055209  68.7368951
  40.7181661  44.7525209  68.8148951  41.2471661  46.7045209  69.7918951
  40.9620570  46.3716554  70.7018473  41.6064125  47.6418207  69.6800380
  42.3751661  45.9805209  65.0768951  43.3521661  46.6765209  64.7918951
  41.4311661  45.6175209  64.1508951  40.7458596  44.9225845  64.4107364
  41.3981661  46.1475209  62.7908951  41.9686646  47.0725777  62.7078252
  41.9561661  45.1305209  61.7718951  41.8634939  45.5480900  60.7693248
  43.4251661  44.8265209  62.0628951  43.5185887  44.4084596  63.0651914
  43.7993905  44.1079342  61.3337245  44.0068628  45.7460166  61.9976392
  41.1281661  43.8475209  61.7888951  40.0948789  44.0778572  61.5293480
  41.5355109  43.1419715  61.0647612  41.1622530  43.4056488  62.7847304
  39.9661661  46.5325209  62.4228951  39.0111661  46.0725209  63.0528951
  39.9001661  47.4435209  61.5218951  40.7066833  47.9917872  61.2591527
  38.6231661  47.7425209  60.8838951  37.8117590  47.2919717  61.4554920
  38.3941661  49.2545209  60.8178951  38.4636192  49.6826442  61.8178881
  39.1394092  49.7186930  60.1719407  37.0531661  49.6465209  60.2758951
  36.7741661  50.1085209  59.0188951  37.6141307  50.2025532  58.3306238
  35.4281661  50.3645209  58.8968951  34.9701076  50.7155011  58.0679833
  34.8101661  50.0695209  60.0818951  33.4661661  50.1645209  60.4468951
  32.7514259  50.5242257  59.7067212  33.1281661  49.7965209  61.7228951
  32.0870881  49.8586178  62.0397553  34.0921661  49.3395209  62.6368951
  33.8141051  49.0489509  63.6499847  35.4311661  49.2445209  62.2748951
  36.1420210  48.8828860  63.0178663  35.8061661  49.6145209  60.9768951
  38.5641661  47.1455209  59.4798951  39.3491661  47.5185209  58.6078951
  37.5711661  46.3265209  59.1968951  36.8106217  46.2059230  59.8504451
  37.5621661  45.5345209  57.9708951  38.5619460  45.5155699  57.5370976
  37.1281661  44.0955209  58.2628951  36.1742179  44.1461480  58.7877939
  36.9879774  43.5993367  57.3025575  38.1251661  43.3085209  59.0988951
  39.0934868  43.3415252  58.5995288  38.2046300  43.7842742  60.0763645
  37.6941661  41.8595209  59.2738951  36.8254370  41.8211594  59.9311143
  37.4317201  41.4439487  58.3010019  38.7591661  41.0475209  59.8578951
  39.3023843  40.4828357  59.2206009  39.0531661  41.0025209  61.1538951
  38.3671661  41.7275209  62.0318951  37.6136543  42.3200936  61.7138109
  38.6026210  41.6824601  63.0130323  40.0421661  40.2295209  61.5778951
  40.5679758  39.6782126  60.9148088  40.2657158  40.1951294  62.5622434
  36.6431661  46.1545209  56.9238951  36.8071661  45.9125209  55.7258951
  35.7591661  46.9115209  57.4198951  35.6704733  47.1251765  58.4030453
  34.7681661  47.4635209  56.4988951  34.5631466  46.7462914  55.7041323
  33.4611661  47.7645209  57.2348951  33.2462252  46.9162159  57.8847245
  33.6166921  48.6563487  57.8419824  32.2911661  47.9905209  56.2948951
  32.3351661  47.5145209  55.1408951  31.3161661  48.6545209  56.7108951
  35.2941661  48.7275209  55.8218951  34.6871661  49.7945209  55.9308951
  36.5041661  48.6405209  55.1478951  36.9932884  47.7585909  55.2031964
  37.1331661  49.7355209  54.4178951  36.3850367  50.4299650  54.0356009
  38.1411661  50.5015209  55.3048951  37.6083782  50.9364996  56.1504901
  39.2321661  49.5585209  55.8198951  39.7657325  49.1234820  54.9748219
  39.9316527  50.1167790  56.4421228  38.7768285  48.7630875  56.4098548
  38.7521661  51.6725209  54.5268951  39.4191680  51.2486804  53.7761831
  37.9330083  52.1937965  54.0315652  39.5261661  52.6545209  55.3968951
  40.3458271  52.1340352  55.8922238  39.9276451  53.4540698  54.7742913
  38.8596672  53.0791497  56.1476077  37.8301661  49.1895209  53.1728951
  38.5751661  48.2105209  53.2508951  37.5221661  49.8605209  51.9898951
  36.8159914  50.5823579  52.0090747  38.1371661  49.5275209  50.7078951
  39.1917228  49.2937419  50.8540351  37.4491661  48.3125209  50.0828951
  37.3078220  47.5697835  50.8680462  36.4772125  48.6378630  49.7120060
  38.2461661  47.6995209  48.9438951  38.7721661  48.4495209  48.0938951
  38.3491661  46.4545209  48.8988951  38.0851661  50.7125209  49.7478951
  37.0041661  51.2035209  49.4158951  39.2621661  51.0355209  49.1988951
  40.1053660  50.4973359  49.3384309  39.3431661  52.2535209  48.3988951
  38.5178967  52.9180059  48.6548040  40.6611661  52.9855209  48.6648951
  41.4887634  52.2761677  48.6652690  40.8329073  53.7429917  47.9001448
  40.7021661  53.6955209  49.9908951  40.3951661  55.0485209  50.0838951
  40.1221233  55.5942346  49.1807096  40.4331661  55.7065209  51.3098951
  40.1886287  56.7670158  51.3703336  40.7831661  55.0095209  52.4558951
  40.8161086  55.5213260  53.4177008  41.0911661  53.6615209  52.3778951
  41.3646590  53.1106254  53.2777928  41.0511661  53.0105209  51.1488951
  41.2953300  51.9501036  51.0856578  39.2141661  51.9345209  46.9128951
  39.1671661  52.8415209  46.0798951  39.0921661  50.6085209  46.6038951
  39.0965148  49.8767750  47.3000476  39.0091661  50.2255209  45.1978951
  38.9681827  51.1276644  44.5875209  40.2411661  49.4185209  44.7938951
  40.2909561  48.5074531  45.3901973  40.1749467  49.1576501  43.7376462
  41.1381644  50.0136575  44.9650844  37.7401661  49.4255209  44.9198951
  37.3821661  49.1985209  43.7618951  37.0771661  48.9285209  46.0838951
  37.5101661  49.2545209  46.9498951  35.9161661  48.0545209  45.9718951
  35.6031661  48.0595209  45.0148951  36.2871661  46.6175209  46.3468951
  36.5311661  46.5865209  47.3218951  35.4881661  46.0245209  46.1978951
  37.4331661  46.0695209  45.5568951  38.7411661  46.1685209  45.9768951
  39.0391661  46.6105209  46.8338951  39.5291661  45.5965209  45.0828951
  40.6091661  45.5705209  45.2338951  38.7791661  45.1295209  44.0988951
  37.4641661  45.4135209  44.3728951  36.6841661  45.1085209  43.6758951
  34.7701661  48.5445209  46.8498951  34.9551661  49.4455209  47.6708951
  33.5391661  47.9525209  46.5848951  33.8449944  48.8174268  46.1623951
  32.3631661  47.9825209  47.4498951  31.5926961  47.3242813  47.0484034
  32.7231661  47.5105209  48.8608951  33.4628604  48.2067596  49.2561209
  31.8155294  47.5656107  49.4619448  33.2811661  46.0935209  48.9128951
  32.5266524  45.4271395  48.4948691  34.1740147  46.0679309  48.2881825
  33.6341661  45.6395209  50.3188951  34.1921661  44.5295209  50.4768951
  33.3511661  46.3985209  51.2728951  31.7541661  49.3805209  47.5038951
  30.9311661  49.6685209  48.3758951  32.2611661  50.2815209  46.5898951
  33.0209312  50.0322141  45.9728841  31.7441661  51.6485209  46.5358951
  30.6794053  51.6332914  46.7686000  32.4551661  52.5245209  47.5628951
  33.5211616  52.5569805  47.3377284  32.0456272  53.5339809  47.5258984
  32.3074049  52.1093470  48.5598387  31.8981661  52.2385209  45.1388951
  32.3461661  51.5555209  44.2138951  31.3951661  53.4945209  44.8918951
  30.6241661  54.4265209  45.9898951  31.3257237  54.9139469  46.6668982
  29.9016641  53.8511450  46.5687149  29.9641661  55.3935209  45.0488951
  29.8792180  56.3560851  45.5532294  28.9682199  55.0170551  44.8155159
  30.7981661  55.4965209  43.8138951  31.6514027  56.1473791  44.0048665
  30.2442143  55.8680557  42.9518052  31.2821661  54.0685209  43.5478951
  30.5527677  53.4788149  42.9926268  32.6111661  54.0735209  42.7948951
  32.6251661  54.0585209  41.5628951  33.7171661  54.0565209  43.4348951
  33.6860345  53.9778504  44.4413449  35.0181661  54.1445209  42.7898951
  34.9592283  54.9030981  42.0093913  35.7482167  54.4507880  43.5391121
  35.4661661  52.8325209  42.1708951  36.5021661  52.7765209  41.5078951
  34.7321661  51.7385209  42.3208951  33.8613473  51.8478460  42.8207170
  35.1061661  50.4045209  41.8678951  35.9797696  50.0594136  42.4209025
  33.9581661  49.4145209  42.0978951  33.8606125  49.1927955  43.1606370
  33.0228161  49.8340230  41.7274381  34.1451661  48.0965209  41.3988951
  33.2821661  47.7055209  40.3818951  32.4651581  48.3679923  40.0960116
  33.4501661  46.4865209  39.7308951  32.7667574  46.1912595  38.9347331
  34.4901661  45.6475209  40.0978951  34.6260563  44.6911373  39.5929553
  35.3581661  46.0265209  41.1088951  36.1781013  45.3692400  41.3983574
  35.1831661  47.2465209  41.7548951  35.8656104  47.5445757  42.5508430
  35.4941661  50.4205209  40.3958951  36.5871661  49.9805209  40.0298951
  34.6701661  50.9455209  39.5198951  33.8364270  51.4072069  39.8542968
  34.8791661  50.8535209  38.0788951  35.2512283  49.8617455  37.8218922
  33.5651661  51.0915209  37.3318951  33.2053426  52.0391290  37.7327258
  33.7949606  51.2093787  36.2729314  32.4841661  50.0225209  37.5028951
  32.3931854  49.7743046  38.5603505  31.1461661  50.5345209  36.9848951
  31.2362417  50.7825244  35.9273132  30.3869764  49.7629918  37.1132483
  30.8565659  51.4249103  37.5429621  32.8851661  48.7365209  36.7838951
  33.8207379  48.3633261  37.2004650  32.1046894  47.9872054  36.9161203
  33.0167304  48.9397222  35.7211162  35.9301661  51.8575209  37.6168951
  36.9251661  51.4765209  36.9938951  35.8751661  53.1315209  38.0028951
  34.8691661  53.6385209  38.6788951  34.7944197  53.1028815  39.6252585
  33.9594018  53.4804874  38.0997119  35.1841661  55.0945209  38.8638951
  35.3293831  55.2793157  39.9282550  34.3336807  55.6756755  38.5074750
  36.4161661  55.4165209  38.0808951  37.1632751  55.8532244  38.7436299
  36.2306254  56.0936623  37.2471363  36.9111661  54.0665209  37.5568951
  36.9483719  54.0302037  36.4681366  38.2891661  53.7335209  38.1238951
  39.3001661  53.8935209  37.4328951  38.3581661  53.2515209  39.3858951
  37.5253162  53.1693748  39.9513262  39.6381661  52.8865209  39.9828951
  40.3085344  53.7459165  39.9708591  39.4471661  52.4355209  41.4328951
  38.8693762  53.1798214  41.9808685  38.9261581  51.4785356  41.4616990
  40.7291661  52.2485209  42.1858951  41.3361661  53.1495209  43.0168951
  40.8364781  54.1087990  43.1517925  42.5001661  52.6185209  43.5228951
  43.1317916  53.0835839  44.1591854  42.6631661  51.3535209  43.0228951
  43.6801661  50.4225209  43.2428951  44.4985962  50.6941483  43.9095956
  43.5831661  49.2145209  42.5998951  44.3596805  48.4642216  42.7488125
  42.5041661  48.9185209  41.7508951  42.4359659  47.9556834  41.2445434
  41.4901661  49.8455209  41.5308951  40.6738557  49.5713241  40.8626481
  41.5641661  51.0875209  42.1758951  40.3191661  51.7845209  39.1798951
  41.5011661  51.8925209  38.8448951  39.5571661  50.6645209  38.8468951
  38.5821661  50.7275209  39.1528951  40.1491661  49.5395209  38.1298951
  41.0031661  49.2775209  38.5968951  39.2021661  48.3385209  38.1468951
  38.2711661  48.6535209  37.9358951  39.4891661  47.6875209  37.4338951
  39.1711661  47.6165209  39.4558951  38.4171661  48.0475209  40.5258951
  37.8351661  48.8595209  40.5318951  38.5851661  47.2155209  41.5408951
  38.1561661  47.2945209  42.4348951  39.4211661  46.2625209  41.1658951
  39.8011661  46.4905209  39.8668951  40.4251661  45.9305209  39.3278951
  40.4881661  49.9185209  36.6928951  41.4191661  49.3675209  36.1028951
  39.7621661  50.9325209  36.1278951  40.4146054  51.0740571  36.8857802
  40.1051661  51.4615209  34.8118951  40.1498475  50.6477327  34.0881192
  39.0541661  52.4725209  34.3468951  38.1115904  51.9346639  34.2451113
  38.9601914  53.2241504  35.1306820  39.3931661  53.1525209  33.0318951
  40.2061513  53.8566060  33.2091527  39.7212402  52.3898285  32.3256588
  38.1951661  53.8955209  32.4558951  37.7624305  54.5308236  33.2287013
  38.5248135  54.5135125  31.6207193  37.1681661  52.9735209  31.9788951
  37.3745947  51.9871420  32.0462991  35.9961661  53.3435209  31.4688951
  35.6801661  54.6295209  31.3578951  36.3348419  55.3354277  31.6631742
  34.7867748  54.8950952  30.9687655  35.1331661  52.4215209  31.0668951
  35.3692384  51.4429859  31.1495945  34.2433964  52.7016656  30.6796904
  41.4851661  52.1125209  34.8268951  42.3201661  51.8285209  33.9658951
  41.7291661  52.9575209  35.7298951  40.9998589  53.2339081  36.3716275
  43.0341661  53.5965209  35.8498951  43.3501144  54.0379106  34.9046697
  43.0291661  54.7005209  36.9338951  42.6483200  54.2796213  37.8644320
  44.4401661  55.2415209  37.1598951  44.8215304  55.6630319  36.2298463
  44.4143087  56.0166440  37.9258038  45.0926549  54.4313658  37.4854849
  42.0781661  55.8295209  36.5378951  41.0684450  55.4335237  36.4294908
  42.0852167  56.5988419  37.3100319  42.4016294  56.2625298  35.5913352
  44.0961661  52.5475209  36.1738951  45.2031661  52.5895209  35.6318951
  43.7241661  51.6375209  37.0278951  42.8115829  51.7058150  37.4552440
  44.5961661  50.5415209  37.4318951  45.4749578  50.9384800  37.9400761
  43.8641661  49.5935209  38.3878951  43.5078130  50.1408733  39.2605445
  43.0182435  49.1309836  37.8793932  44.7221661  48.4705209  38.9048951
  44.4471661  47.1525209  38.5618951  43.5988766  46.9396087  37.9113775
  45.2391661  46.1095209  39.0378951  45.0145174  45.0791446  38.7622901
  46.3161661  46.3865209  39.8648951  46.9381757  45.5741649  40.2407698
  46.6021661  47.6965209  40.2138951  47.4489255  47.9165768  40.8640291
  45.8061661  48.7325209  39.7328951  46.0305522  49.7638005  40.0053163
  45.0961661  49.7705209  36.2148951  46.3001661  49.5445209  36.0678951
  44.2541661  49.4465209  35.2588951  43.2838382  49.6902137  35.3973754
  44.6201661  48.7265209  34.0428951  45.2240098  47.8552792  34.2966860
  43.3651661  48.2535209  33.3028951  42.7357713  49.1425050  33.2620454
  43.6549313  47.9673599  32.2918323  42.5871661  47.1075209  33.9538951
  42.4358392  47.3339386  35.0093268  41.2341661  46.9325209  33.2728951
  41.3846968  46.7056070  32.2174571  40.6917528  46.1140624  33.7461964
  40.6574795  47.8526177  33.3675251  43.3911661  45.8135209  33.8968951
  44.3335478  45.9469869  34.4281229  42.8216326  45.0103899  34.3645631
  43.5939869  45.5566754  32.8571869  45.4641661  49.6015209  33.1238951
  46.4361661  49.1295209  32.5308951  45.1281661  50.8765209  33.0288951
  44.3242604  51.2277545  33.5293648  45.8671661  51.7985209  32.1728951
  45.9130477  51.4045291  31.1576294  45.1761661  53.1645209  32.1368951
  44.9817453  53.3827422  33.1869805  45.8839071  53.8923504  31.7400741
  43.8671661  53.2445209  31.3488951  43.2166649  52.4255079  31.6557608
  43.1691661  54.5735209  31.6128951  43.8189137  55.3930565  31.3058309
  42.2395507  54.6153197  31.0452960  42.9491596  54.6639549  32.6766240
  44.1291661  53.0565209  29.8598951  44.5849958  52.0809230  29.6909945
  43.1874077  53.1163114  29.3143520  44.8028098  53.8376323  29.5075200
  47.3041661  51.9555209  32.6548951  48.2401661  51.9275209  31.8528951
  47.4521661  52.0285209  33.9428951  46.6685826  52.0164839  34.5800381
  48.7931661  52.1875209  34.4978951  49.3313568  52.9569286  33.9443051
  48.7231661  52.6025209  35.9698951  48.0856266  51.8809215  36.4807148
  49.7342460  52.5423646  36.3726341  48.1751661  54.0035209  36.1848951
  47.2380178  54.0907736  35.6351308  47.9845525  54.1349567  37.2500210
  49.3331661  55.3075209  35.6138951  50.6511661  55.1275209  36.8468951
  51.0619240  54.1191699  36.7958533  51.4404012  55.8514776  36.6441751
  50.2443552  55.3035902  37.8426891  49.5981661  50.8995209  34.3568951
  50.7861661  50.9375209  34.0378951  48.9371661  49.8225209  34.5978951
  47.9841978  49.8502800  34.9313320  49.5781661  48.5195209  34.4408951
  50.4564995  48.4603442  35.0836454  48.6121661  47.3965209  34.8278951
  48.0180450  47.7005754  35.6896783  47.9496013  47.1647659  33.9939901
  49.2911661  46.1135209  35.2058951  50.4631661  45.6205209  34.7018951
  50.9649318  46.2227986  33.9445361  50.7631661  44.4145209  35.2918951
  51.5762093  43.8485255  35.0951479  49.7801661  44.1075209  36.1938951
  49.6421661  42.9995209  37.0338951  50.4111587  42.2275426  37.0056360
  48.5391661  42.9535209  37.8468951  48.3991620  42.1023698  38.5132588
  47.5801661  43.9805209  37.8428951  46.7064353  43.9352919  38.4930092
  47.7171661  45.0845209  37.0098951  46.9493546  45.8574384  37.0440239
  48.8351661  45.1555209  36.1668951  50.0641661  48.3195209  33.0098951
  51.2371661  48.0085209  32.7838951  49.2751661  48.5845209  32.1328951
  48.3404922  48.8427602  32.4153778  49.5681661  48.4995209  30.7048951
  49.9260210  47.4992876  30.4608207  48.3111661  48.7835209  29.8808951
  47.5501702  48.0689504  30.1945403  47.9839153  49.7936177  30.1272918
  48.5231661  48.6715209  28.3758951  49.1811084  49.4852243  28.0707726
  49.0139772  47.7171433  28.1851936  47.2291661  48.7425209  27.5828951
  46.9031661  49.8265209  27.0498951  46.5381661  47.7035209  27.4908951
  50.6851661  49.4625209  30.3128951  51.6101661  49.0865209  29.5898951
  50.6291661  50.6315209  30.7978951  49.8564116  50.8905497  31.3944300
  51.6291661  51.6465209  30.4808951  51.6860497  51.7836245  29.4010497
  51.2591661  52.9845209  31.1248951  50.3139978  53.3038418  30.6858162
  51.1210200  52.8026837  32.1907051  52.3021661  54.0725209  30.9278951
  52.0210844  54.9315348  31.5371480  53.2655655  53.6890557  31.2639281
  52.4061661  54.4975209  29.4688951  53.1519686  55.2872221  29.3780669
  52.7096005  53.6409431  28.8669803  51.1311661  54.9975209  28.9618951
  50.3067451  54.4642011  29.1985368  50.9881661  56.0895209  28.2168951
  52.0431661  56.8225209  27.8788951  52.9644971  56.5494929  28.1898693
  51.9191318  57.6495007  27.3124857  49.7811661  56.4555209  27.8098951
  48.9756986  55.9032945  28.0675150  49.6723634  57.2849808  27.2439825
  53.0141661  51.2125209  30.9428951  53.9971661  51.3805209  30.2178951
  53.1061661  50.6865209  32.1858951  52.3059141  50.6105499  32.7973886
  54.4061661  50.2635209  32.6928951  55.1230287  51.0790241  32.5971775
  54.3041661  49.8725209  34.1698951  53.4755189  49.1703398  34.2614625
  55.2350386  49.3719387  34.4363419  54.0761661  51.0505209  35.1058951
  53.1014597  51.4762533  34.8675674  54.0638254  50.6638095  36.1249148
  55.1421661  52.1275209  34.9858951  54.7911661  53.3055209  34.7478951
  56.3381661  51.7905209  35.1308951  54.9641661  49.0985209  31.8808951
  56.1761661  49.0065209  31.6718951  54.1471661  48.2495209  31.3948951
  53.1663601  48.2977850  31.6310930  54.5991661  47.1595209  30.5368951
  55.4952074  46.6884911  30.9410488  53.4961661  46.0925209  30.3498951
  52.5595266  46.5920944  30.1024416  53.8691661  45.1225209  29.2258951
  54.8055300  44.6221915  29.4728646  53.0802943  44.3793288  29.1099323
  53.9876438  45.6743825  28.2934194  53.2511661  45.3425209  31.6628951
  54.1638358  44.7936772  31.8950706  53.0728849  46.0925672  32.4334442
  52.0761661  44.3755209  31.6148951  52.2539498  43.6248520  30.8448374
  51.9691392  43.8846845  32.5822234  51.1629988  44.9237422  31.3832085
  55.0341661  47.7155209  29.1828951  56.0461661  47.2845209  28.6238951
  54.3211661  48.6595209  28.6688951  53.4483311  48.9334378  29.0969464
  54.7201661  49.3175209  27.4298951  54.7809588  48.5840087  26.6259279
  53.7001661  50.3895209  27.0378951  53.5475555  51.0252802  27.9100301
  54.1416645  50.9773892  26.2331652  52.3621661  49.8275209  26.5798951
  52.4949945  49.3676885  25.6006037  52.0360367  49.0717121  27.2943842
  51.2841661  50.8925209  26.4738951  51.4341661  51.9995209  26.9968951
  50.1901661  50.5605209  25.7968951  49.4407475  51.2298503  25.6945656
  50.1130082  49.6403484  25.3877123  56.1091661  49.9365209  27.5568951
  56.9231661  49.8425209  26.6368951  56.3901661  50.4845209  28.6728951
  55.7020022  50.5050222  29.4118873  57.6741661  51.1415209  28.9038951
  57.8786701  51.8451474  28.0969334  57.6551661  51.9075209  30.2268951
  57.2960649  51.2193047  30.9920774  58.6836962  52.1921391  30.4487475
  56.7781661  53.1495209  30.2108951  57.1556093  53.8284312  29.4462264
  55.7606201  52.8500206  29.9598938  56.7811661  53.8545209  31.5618951
  56.3358824  53.1869000  32.2995289  57.8144799  54.0635845  31.8387608
  55.9951661  55.1565209  31.5168951  56.4480533  55.8034990  30.7656207
  54.9696790  54.9269852  31.2274324  55.9951661  55.8525209  32.8378951
  56.9452854  56.0656876  33.1060987  55.4650500  56.7092887  32.7670020
  55.5751638  55.2533537  33.5340961  58.8181661  50.1315209  28.9008951
  59.8471661  50.3525209  28.2598951  58.6001661  49.0235209  29.5308951
  57.7240150  48.7815223  29.9712304  59.7161661  48.0935209  29.6548951
  60.6621234  48.6274703  29.7452395  59.5371661  47.1545209  30.8688951
  60.3732546  46.4559315  30.9009779  59.4931661  47.9575209  32.1718951
  58.6569949  48.6560538  32.1407459  59.3666298  47.2774731  33.0142870
  60.4245061  48.5114769  32.2895298  58.2711661  46.3065209  30.7058951
  57.4191155  46.9817706  30.7843064  58.3002160  45.8736297  29.7059647
  58.1331661  45.1935209  31.7368951  58.1035789  45.6257028  32.7371167
  57.2123616  44.6398123  31.5535239  58.9846812  44.5175628  31.6587764
  59.8551661  47.2775209  28.3718951  60.9291661  46.7465209  28.0798951
  58.9021661  47.2725209  27.6198951  58.0402817  47.7583605  27.8229084
  58.9831661  46.4925209  26.3898951  59.8002641  45.7749061  26.4639156
  57.6751661  45.7235209  26.1278951  57.7953251  45.1288739  25.2223251
  57.3341661  44.8055209  27.2968951  57.2133898  45.3995447  28.2027916
  56.4058951  44.2752143  27.0843229  58.1391345  44.0847185  27.4403188
  56.6071661  46.6595209  25.9418951  55.7895830  46.1837402  25.7782162
  59.2941661  47.3925209  25.1978951  59.7691661  46.9205209  24.1628951
  58.9561661  48.6835209  25.3228951  58.6090541  49.0488936  26.1981753
  59.0811661  49.5945209  24.1968951  59.0813428  50.6134888  24.5839399
  60.0317992  49.3939407  23.7027658  57.9581661  49.4505209  23.1848951
  58.0221661  50.0235209  22.0968951  57.0211661  48.6415209  23.4668951
  57.0959044  48.0987951  24.3154010  55.8661661  48.4165209  22.5998951
  56.1229099  48.6662283  21.5704156  55.4341661  46.9515209  22.6538951
  56.3098571  46.3415295  22.4321403  55.0924737  46.7409012  23.6672981
  54.3261661  46.6235209  21.6678951  53.8301661  47.5425209  20.9798951
  53.9431661  45.4375209  21.5798951  54.7011661  49.3235209  22.9918951
  53.9051661  48.9775209  23.8658951  54.5721661  50.4305209  22.3248951
  55.2050665  50.6254899  21.5623181  53.5761661  51.4395209  22.6728951
  53.5379637  51.5622146  23.7552934  53.9331661  52.7875209  22.0398951
  54.0623240  52.6185337  20.9708484  53.0868597  53.4550302  22.2020583
  55.1941661  53.4205209  22.6088951  55.0750226  53.4742854  23.6910296
  56.0298053  52.7633888  22.3680968  55.4691661  54.8115209  22.0598951
  56.4371661  55.4635209  22.5118951  54.7091661  55.2535209  21.1698951
  52.1801661  51.0115209  22.2398951  51.1811661  51.5775209  22.6878951
  52.0981661  49.9275209  21.4238951  52.9430420  49.4639295  21.1216252
  50.8211661  49.4435209  20.9088951  50.0799976  50.2416582  20.9506708
  50.9671661  48.9875209  19.4558951  51.8247722  48.3186861  19.3832924
  50.0637677  48.4521369  19.1637733  51.1741661  50.1465209  18.4998951
  50.6021661  51.2245209  18.6768951  51.9951661  49.9315209  17.4778951
  52.1693808  50.6690727  16.8102376  52.4413747  49.0314956  17.3732376
  50.2641661  48.3095209  21.7668951  49.1811661  47.7915209  21.4888951
  50.9841661  47.9245209  22.7528951  51.8881337  48.3443380  22.9162830
  50.5531661  46.8455209  23.6348951  50.3197239  45.9585727  23.0458901
  51.6611661  46.4925209  24.6338951  52.4977335  46.0249468  24.1146373
  52.0078354  47.3903932  25.1455061  51.2251661  45.5275209  25.7048951
  50.9531661  45.9725209  26.9918951  51.0577784  47.0331416  27.2204560
  50.5511661  45.0825209  27.9848951  50.3389617  45.4425041  28.9916136
  50.4211661  43.7335209  27.6888951  50.1092204  43.0320325  28.4626546
  50.6881661  43.2785209  26.4088951  50.5837378  42.2194605  26.1731286
  51.0901661  44.1745209  25.4228951  51.3031314  43.8168648  24.4155085
  49.2821661  47.2315209  24.3798951  49.1831661  48.3365209  24.9208951
  48.2911661  46.2775209  24.3328951  48.3686999  45.4906707  23.7044409
  47.0861661  46.3965209  25.1468951  47.2318331  47.1616402  25.9094387
  45.8681661  46.7835209  24.2878951  44.9944491  46.8586999  24.9352489
  46.0941661  48.1165209  23.5828951  46.9675063  48.0419722  22.9349606
  45.2179913  48.3643933  22.9837491  46.2587893  48.8974504  24.3252892
  45.6421661  45.7665209  23.3038951  44.8832627  46.0044674  22.7662638
  46.7991661  45.0905209  25.8828951  47.1611661  44.0115209  25.4048951
  46.2191661  45.2585209  27.0998951  46.1293411  46.1692669  27.5271803
  45.7571661  44.0955209  27.8478951  46.4725274  43.2758780  27.7804941
  45.5101661  44.4425209  29.3338951  44.8502863  45.3082627  29.3900210
  44.8641661  43.2605209  30.0628951  45.5237154  42.3944741  30.0075934
  44.6981397  43.5240181  31.1074549  43.9102565  43.0206879  29.5931764
  46.8211661  44.8555209  30.0118951  47.4375126  43.9602409  30.0936964
  47.3109656  45.5744336  29.3551146  46.6371661  45.4725209  31.3918951
  46.1478104  44.7539792  32.0494121  47.6105324  45.7376790  31.8046280
  46.0212611  46.3681712  31.3108304  44.4831661  43.5475209  27.2128951
  43.4821661  44.2605209  27.0938951  44.5081661  42.2225209  26.7138951
  45.6491661  41.1015209  26.8368951  45.9708366  40.9921167  27.8725877
  46.5075080  41.3567159  26.2154260  44.9151661  39.8945209  26.3308951
  44.5820443  39.3131646  27.1906356  45.6076330  39.2986640  25.7362981
  43.7591661  40.3545209  25.5018951  42.9702736  39.6027157  25.5250553
  44.0309710  40.5634606  24.4672135  43.2761661  41.6365209  26.1838951
  42.8468211  42.3457183  25.4762227  42.2531661  41.3235209  27.2738951
  42.5491661  41.4735209  28.4628951  41.0331661  40.9965209  26.7918951
  40.7809788  41.0430052  25.8149918  40.0101661  40.5975209  27.7518951
  40.4281680  40.5983868  28.7585594  38.8271661  41.5715209  27.7118951
  38.1161812  41.2508230  28.4733099  39.2127012  42.5583339  27.9681428
  38.1351661  41.6345209  26.3728951  38.5301661  42.5555209  25.4058951
  39.3527517  43.2344039  25.6307738  37.8941661  42.6185209  24.1698951
  38.2107141  43.3436723  23.4201920  36.8541661  41.7505209  23.8958951
  36.2211661  41.8075209  22.6738951  36.5826515  42.4829547  22.0953476
  36.4431661  40.8275209  24.8378951  35.6213064  40.1451953  24.6209184
  37.0861661  40.7725209  26.0708951  36.7696293  40.0453771  26.8186694
  39.5231661  39.1805209  27.4718951  39.6911661  38.6655209  26.3638951
  39.0711661  38.5145209  28.5728951  39.2609077  38.9002756  29.4868376
  38.3641661  37.2405209  28.4928951  38.5110798  36.7986436  27.5073699
  38.8911661  36.2655209  29.5498951  39.9135880  35.9743517  29.3091186
  38.8691444  36.7319376  30.5348167  38.0981661  34.9975209  29.6578951
  37.3641661  34.3985209  28.6728951  37.3514474  34.8904604  27.7003039
  36.7751661  33.2505209  29.1518951  36.1845973  32.6257120  28.6218557
  37.1231661  33.0915209  30.4648951  36.7781661  32.0865209  31.3738951
  36.1308728  31.2783010  31.0334681  37.2801661  32.1825209  32.6458951
  37.0292427  31.4170776  33.3802206  38.1131661  33.2465209  33.0288951
  38.5092913  33.3129814  34.0421904  38.4571661  34.2465209  32.1268951
  39.1042823  35.0529584  32.4718589  37.9581661  34.1745209  30.8188951
  36.8621661  37.4385209  28.6708951  36.3951661  37.7465209  29.7688951
  36.1541661  37.2975209  27.5798951  36.5991081  37.1952488  26.6789698
  34.6951661  37.3385209  27.6308951  34.3710868  38.1663339  28.2616070
  34.1151661  37.5355209  26.2298951  34.6006493  38.4081395  25.7929257
  34.3571567  36.6519391  25.6392820  32.6111661  37.7435209  26.2358951
  31.9581661  37.4555209  27.2628951  32.0711661  38.1955209  25.2028951
  34.1341661  36.0615209  28.2568951  33.9811661  35.0455209  27.5758951
  33.8731661  36.1005209  29.5698951  33.9535917  36.9697376  30.0779242
  33.5201661  34.8965209  30.3118951  34.0006678  34.0305534  29.8565738
  33.9811661  35.0025209  31.7678951  33.1298257  34.8718916  32.4359181
  34.7313995  34.2416784  31.9832289  34.5991661  36.3245209  32.1138951
  35.9291661  36.5985209  32.2678951  36.6222089  35.7701879  32.1207355
  36.1061661  37.9225209  32.5898951  36.9942439  38.3729341  32.7588490
  34.8811661  38.5325209  32.6478951  34.5451661  39.8575209  32.9348951
  35.3487237  40.5606886  33.1538682  33.2181661  40.1915209  32.9228951
  32.9215746  41.2170807  33.1428053  32.2231661  39.2415209  32.6328951
  31.1687696  39.5176714  32.6235015  32.5541661  37.9235209  32.3498951
  31.7482822  37.2225499  32.1324292  33.9061661  37.5545209  32.3548951
  32.0161661  34.6445209  30.2588951  31.5221661  33.6785209  30.8438951
  31.2481661  35.4355209  29.5648951  31.6319083  36.2545479  29.1154109
  29.8121661  35.1975209  29.4598951  29.3613158  35.2237647  30.4519356
  29.1501661  36.2695209  28.5938951  29.6553232  36.2619242  27.6280494
  28.1080830  35.9790118  28.4606015  29.2141661  37.6675209  29.1878951
  28.5778707  37.6945802  30.0724836  30.2453241  37.8715528  29.4763155
  28.7471661  38.7225209  28.1948951  27.7256750  38.4972704  27.8884364
  28.7747487  39.7011419  28.6741025  29.5951661  38.7595209  27.0058951
  30.3832542  38.1280795  26.9886202  29.4001661  39.5595209  25.9618951
  28.3791661  40.4075209  25.9368951  27.7410037  40.4479633  26.7186963
  28.2452031  41.0083711  25.1361875  30.2341661  39.5095209  24.9318951
  31.0116006  38.8649385  24.9463636  30.0880165  40.1162572  24.1377855
  29.5281661  33.8125209  28.8858951  30.1461661  33.4035209  27.9028951
  28.7241661  33.0755209  29.5978951  28.5034786  33.3951978  30.5302057
  28.1691661  31.7995209  29.1538951  27.3827243  31.4809848  29.8381050
  27.5721661  31.9335209  27.7508951  28.3775857  32.2202689  27.0747485
  27.1852513  30.9567166  27.4606360  26.4581661  32.9615209  27.6748951
  25.5781661  32.9755209  28.5638951  26.4581661  33.7655209  26.7178951
  29.2311661  30.7025209  29.1698951  29.0291661  29.6275209  28.6008951
  30.3971661  31.0265209  29.6978951  30.6409011  31.9669225  29.9741875
  31.4071661  29.9805209  29.8358951  31.5482191  29.4959354  28.8697791
  32.7391661  30.5805209  30.2798951  32.6161266  31.0615332  31.2502499
  33.4858922  29.7904001  30.3586962  33.0677127  31.3185639  29.5481513
  30.9551661  28.9095209  30.8248951  30.4241661  29.2235209  31.8918951
  31.1341661  27.6335209  30.4768951  31.5130337  27.4176616  29.5658718
  30.7491661  26.5255209  31.3468951  29.9070643  26.8234826  31.9715409
  30.3361661  25.3075209  30.5178951  31.1462468  25.1020884  29.8181337
  30.2293174  24.4686432  31.2056215  29.0361661  25.5005209  29.7468951
  28.2686033  25.7888321  30.4651045  29.1906511  26.3119151  29.0356475
  28.5901661  24.2535209  29.0028951  27.5331661  24.2905209  28.3318951
  29.3011661  23.2265209  29.0908951  31.8821661  26.1515209  32.2968951
  31.6381661  25.6785209  33.4098951  33.0661661  26.3985209  31.8468951
  33.1603468  26.7750155  30.9144353  34.2811661  26.1105209  32.6028951
  34.0642900  26.1318873  33.6708873  34.8241661  24.7265209  32.2418951
  35.0958922  24.7451712  31.1864727  35.7157321  24.5478936  32.8429795
  33.8181661  23.6145209  32.4858951  33.1311661  23.6325209  33.5308951
  33.7151661  22.7105209  31.6288951  35.3501661  27.1735209  32.3518951
  35.1271661  28.1155209  31.5888951  36.4871661  27.0025209  33.0808951
  36.5926476  26.2755473  33.7740634  37.5881661  27.9385209  32.8878951
  37.1996196  28.9534243  32.8036219  38.5531661  27.8815209  34.0728951
  37.9997367  28.0292863  35.0002464  39.0451797  26.9091355  34.0950140
  39.8641661  29.1215209  34.0038951  38.3391661  27.6405209  31.5948951
  39.3101661  26.8815209  31.5978951  37.9601661  28.2845209  30.4938951
  37.2561479  29.0042703  30.5740106  38.4751661  27.9655209  29.1668951
  38.6456754  26.8952724  29.0503023  37.5111661  28.4355209  28.0558951
  38.0040811  28.3219231  27.0903747  36.2261661  27.6115209  28.0708951
  35.7324172  27.7249909  29.0360052  35.5615201  27.9595353  27.2801789
  36.4657432  26.5608461  27.9072279  37.1981661  29.9215209  28.2148951
  38.1216203  30.4968960  28.1494891  36.5175461  30.2366542  27.4239798
  36.7315775  30.0933212  29.1848851  39.8481661  28.6045209  28.9778951
  40.6131661  28.1995209  28.0978951  40.2101661  29.5985209  29.7718951
  39.5535658  29.9562854  30.4508501  41.5171661  30.2395209  29.6688951
  41.9170260  30.1685304  28.6573756  41.4531661  31.7295209  30.0708951
  42.4690388  32.1139910  30.1619158  40.6941661  32.5405209  29.0218951
  39.6779903  32.1569069  28.9306384  40.6610649  33.5870131  29.3249775
  41.2011720  32.4570646  28.0606034  40.7991661  31.8835209  31.4438951
  41.3821669  31.3402855  32.1876071  40.7616151  32.9391929  31.7126816
  39.7866979  31.4810512  31.4118492  42.5251661  29.4995209  30.5468951
  43.7221661  29.7885209  30.5058951  42.0381661  28.5105209  31.4068951
  41.0439986  28.3336361  31.4279173  42.8941661  27.7525209  32.3108951
  43.7067588  28.3859711  32.6666103  42.0971661  27.2575209  33.5168951
  41.2616129  26.6467360  33.1750007  42.7436790  26.6605234  34.1601019
  41.4331661  28.5855209  34.5458951  43.5351661  26.5705209  31.5938951
  43.1921661  25.4165209  31.8608951  44.3821661  26.8485209  30.6278951
  44.4326122  27.8207491  30.3589583  45.2031661  25.8855209  29.8998951
  45.1694093  24.9214221  30.4073131  44.7021661  25.6995209  28.4568951
  45.2174085  24.8460017  28.0162926  43.1961661  25.4565209  28.4238951
  42.6801878  26.3098823  28.8639410  42.8707669  25.3287221  27.3914795
  42.9601828  24.5571215  28.9926596  44.9991661  26.8805209  27.6988951
  44.6882008  26.7688530  26.7975455  46.6651661  26.3275209  29.8808951
  46.9681661  27.4975209  30.1218951  47.5431661  25.3995209  29.5768951
  47.2622007  24.4436578  29.4111137  48.9661661  25.7205209  29.5298951
  49.2517045  26.2635491  30.4308321  49.8021661  24.4425209  29.4438951
  49.3897177  23.8319191  28.6406822  50.8240010  24.7282817  29.1943068
  49.8011661  23.6455209  30.7368951  49.5701661  24.2305209  31.8148951
  50.0371661  22.4185209  30.6728951  49.2861661  26.6385209  28.3528951
  50.3051661  27.3305209  28.3548951  48.3441661  26.6995209  27.4198951
  47.5279153  26.1062274  27.4627525  48.4931661  27.5895209  26.2728951
  49.5293994  27.5848119  25.9348157  47.5991661  27.1315209  25.1168951
  47.8391975  26.0874192  24.9160576  46.5662811  27.2074650  25.4567200
  47.7751661  27.9465209  23.8428951  47.5756613  28.9897854  24.0876357
  48.8126728  27.8401787  23.5260822  46.8541661  27.5055209  22.7168951
  46.8881661  28.1205209  21.6288951  46.0931661  26.5345209  22.9258951
  48.1661661  29.0315209  26.6468951  48.6561661  29.9695209  26.0148951
  47.3841661  29.2015209  27.6968951  47.0395620  28.4131381  28.2258562
  46.9561661  30.5385209  28.0908951  47.3925707  31.2780938  27.4195664
  45.4311661  30.6565209  28.0238951  45.0170176  29.8125032  28.5754512
  45.1536893  31.5860550  28.5209595  44.8831661  30.6555209  26.6168951
  44.8511661  31.8245209  25.8598951  45.2313781  32.7466959  26.2993625
  44.3451661  31.8285209  24.5638951  44.3235255  32.7487443  23.9800951
  43.8651661  30.6515209  24.0178951  43.3651661  30.6505209  22.7348951
  43.3992053  31.5147852  22.3183759  43.8861661  29.4795209  24.7498951
  43.5066639  28.5535961  24.3177589  44.3951661  29.4855209  26.0448951
  44.4155178  28.5640437  26.6267589  47.4421661  30.8745209  29.4968951
  48.6311661  31.1295209  29.7048951  46.5871661  30.7015209  30.5398951
  45.7010354  30.2312196  30.4228982  46.9141661  31.2445209  31.8548951
  47.7913804  31.8871696  31.7800810  45.7481661  32.0705209  32.4018951
  44.8902280  31.4036550  32.4875172  46.0357123  32.4208873  33.3931875
  45.3791661  33.2615209  31.5308951  45.0788719  32.8877999  30.5519892
  44.5386637  33.7765366  31.9961010  46.7691661  34.4395209  31.3258951
  45.9821661  35.6785209  30.2578951  45.1163772  36.1011166  30.7677200
  46.6951261  36.4723073  30.0349781  45.6617524  35.2071778  29.3287708
  47.2661661  30.1295209  32.8328951  47.1351661  30.2965209  34.0468951
  47.7091661  29.0405209  32.3228951  47.7682041  28.9259963  31.3211476
  48.1391661  27.9395209  33.1688951  48.9759158  27.4424310  32.6781296
  48.4710425  28.3538530  34.1208858  47.0451661  26.9235209  33.4278951
  45.9581661  27.2745209  33.8928951  47.3721661  25.6405209  33.1158951
  48.2743718  25.4187181  32.7197540  46.4321661  24.5525209  33.3438951
  45.4231599  24.9449435  33.2173643  46.6182996  23.7820891  32.5956381
  46.5531661  23.9385209  34.7248951  47.3871661  24.3595209  35.5278951
  45.6861661  23.0015209  34.9628951  44.9972933  22.7722420  34.2607664
  45.6361661  22.2935209  36.2388951  45.7368189  23.0042280  37.0591778
  44.3041661  21.5555209  36.3918951  43.5213471  22.2230139  36.0316914
  44.3489468  20.6719674  35.7551630  43.9941661  21.1355209  37.8198951
  44.7149086  20.3740284  38.1178218  44.1003778  22.0077395  38.4649191
  42.5841661  20.5775209  37.9498951  41.8691933  21.3292351  37.6154722
  42.4924262  19.6873320  37.3276035  42.2731661  20.2175209  39.3298951
  43.0093975  20.3436338  40.0097173  41.1011661  19.7415209  39.7438951
  40.1021661  19.5585209  38.8848951  40.2322669  19.7823446  37.9086386
  39.2181172  19.1965888  39.2128619  40.9261661  19.4465209  41.0238951
  41.6826819  19.5842811  41.6787281  40.0370789  19.0852790  41.3387392
  46.7951661  21.3095209  36.3638951  47.1301661  20.6115209  35.4048951
  47.3671661  21.3545209  37.5548951  47.1473402  22.0500933  38.2534328
  48.4111661  20.3795209  37.8538951  49.1822510  20.4152811  37.0843183
  49.0561661  20.6865209  39.2068951  49.2892743  21.7489600  39.2774856
  48.3845206  20.4077121  40.0188421  50.3381661  19.9505209  39.4398951
  51.5691661  20.5635209  39.3658951  51.7162284  21.5394488  39.1513324
  52.5151661  19.6705209  39.6198951  53.5664872  19.9581213  39.6094541
  51.9371661  18.5055209  39.8558951  50.5751661  18.6545209  39.7478951
  49.9189826  17.7988389  39.9070574  47.8571661  18.9605209  37.8488951
  46.7511661  18.7185209  38.3328951  48.6031661  17.9355209  37.3078951
  49.8341661  18.2165209  36.4818951  50.7031146  18.3521986  37.1258054
  49.6900841  19.1096965  35.8739668  49.9201661  16.9675209  35.6528951
  50.9734169  16.7329047  35.4988911  49.4477182  17.1639476  34.6904447
  49.2161661  15.8665209  36.3778951  49.9104114  15.3814152  37.0640401
  48.7848472  15.1204574  35.7104725  48.1061661  16.5645209  37.1678951
  47.1652519  16.6046882  36.6191099  47.8811661  15.8775209  38.5128951
  46.9821661  15.0425209  38.6408951  48.6211661  16.3105209  39.5888951
  49.2504158  17.0992527  39.5436585  48.5301661  15.5695209  40.8418951
  47.8280747  14.7432834  40.7300994  49.9011661  14.9985209  41.2528951
  49.8038452  14.5259621  42.2302983  50.3941661  13.9715209  40.2388951
  50.4921831  14.4434916  39.2612776  51.3634603  13.5852575  40.5541228
  49.6797017  13.1507725  40.1755463  50.8521661  16.0675209  41.3358951
  51.7078221  15.7154422  41.5918127  47.9911661  16.4585209  41.9598951
  47.4641661  15.9615209  42.9548951  48.1761661  17.6925209  41.9078951
  48.7789536  18.0279997  41.1701956  47.6451661  18.6605209  42.8608951
  47.0036998  18.1542662  43.5822315  48.7841661  19.3495209  43.6178951
  49.4506524  18.5847962  44.0167577  49.3342988  19.9833781  42.9224246
  48.2881661  20.2065209  44.7658951  47.1401661  20.6595209  44.7688951
  49.1501661  20.4355209  45.7478951  48.8726146  21.0002791  46.5379034
  50.0800368  20.0440573  45.7010164  46.7611661  19.6975209  42.1748951
  47.2641661  20.6145209  41.5238951  45.4971661  19.5735209  42.4168951
  44.8271661  18.5165209  43.2948951  45.2588234  18.5018717  44.2956736
  44.9075163  17.5244491  42.8505571  43.4181661  19.0375209  43.2818951
  43.2903487  19.6963603  44.1407853  42.7396909  18.1891203  43.3712767
  43.1941661  19.7665209  41.9968951  42.4494935  20.5479267  42.1484425
  42.8764631  19.1156289  41.1823376  44.5491661  20.3965209  41.6638951
  44.8003111  20.3134485  40.6064815  44.5831661  21.8665209  42.0808951
  44.0691661  22.7265209  41.3618951  45.2631661  22.1865209  43.1378951
  45.7248470  21.4713882  43.6815267  45.3281661  23.5645209  43.6108951
  44.4403888  24.1077288  43.2870499  45.3961661  23.6055209  45.1388951
  46.2082290  22.9594952  45.4725177  45.5966646  24.6306140  45.4504791
  44.1101661  23.1435209  45.7928951  43.0141661  23.5315209  45.3798951
  44.2321661  22.3075209  46.8178951  43.4062577  21.9685103  47.2901734
  45.1502784  22.0147114  47.1202746  46.5171661  24.3065209  43.0088951
  46.6371661  25.5235209  43.1588951  47.3471661  23.6065209  42.2798951
  47.1956966  22.6158456  42.1545211  48.5271661  24.2085209  41.6688951
  48.6404104  25.2348648  42.0180271  49.7861661  23.4225209  42.0438951
  49.5741854  22.4112411  41.6967979  50.6238357  23.8318098  41.4791895
  50.1431661  23.3865209  43.5308951  49.2857025  23.0184333  44.0942497
  51.3391661  22.4675209  43.7668951  52.1972070  22.8352532  43.2041894
  51.5818325  22.4517551  44.8294229  51.0935934  21.4584731  43.4358108
  50.4311661  24.7905209  44.0488951  49.5491108  25.4163921  43.9133849
  50.6829849  24.7429285  45.1083400  51.2676837  25.2178639  43.4959798
  48.3831661  24.2645209  40.1508951  47.5701661  23.5395209  39.5728951
  49.1731661  25.1945209  39.6098951  49.7175840  25.8592342  40.1408045
  49.2061661  25.2795209  38.1538951  48.2025335  25.1355205  37.7537895
  49.7191661  26.6495209  37.7058951  50.7131634  26.7142445  38.1484780
  49.8056726  26.6406007  36.6193699  48.8881661  27.8575209  38.1408951
  48.9019473  27.9268209  39.2286030  49.4631661  29.1375209  37.5428951
  49.4492858  29.0691523  36.4551305  48.8621153  29.9895287  37.8605765
  50.4895780  29.2698705  37.8850393  47.4301661  27.6805209  37.7338951
  47.0263009  26.7856364  38.2073652  46.8553949  28.5502480  38.0521937
  47.3645615  27.5789077  36.6506270  50.0821661  24.1775209  37.5658951
  51.0291661  23.7235209  38.2098951  49.7711661  23.7595209  36.3548951
  48.9228306  24.1135885  35.9364906  50.5561661  22.7835209  35.6068951
  50.5851288  21.8391793  36.1504751  49.9361661  22.5365209  34.2308951
  48.9849704  22.0203595  34.3609076  49.7643630  23.4968285  33.7446925
  50.7951661  21.7475209  33.4268951  50.3884660  21.6042390  32.5691859
  52.0011661  23.2445209  35.4458951  52.2571661  24.4135209  35.1488951
  52.9621661  22.3235209  35.6418951  52.7511661  21.0405209  36.3098951
  52.3241114  20.3224278  35.6098475  52.0757449  21.1682488  37.1558211
  54.1431661  20.6705209  36.7388951  54.2598261  19.5929450  36.6234844
  54.2583310  20.9374764  37.7894060  55.1181661  21.4195209  35.8878951
  55.3714957  20.8228119  35.0116180  56.0308999  21.6905155  36.4185351
  54.3691661  22.6835209  35.4578951  54.5835721  23.5342187  36.1047658
  54.7021661  23.0475209  34.0118951  55.7511661  23.6385209  33.7448951
  53.7981661  22.7915209  33.0878951  52.9548055  22.3030650  33.3529477
  53.9881661  23.1315209  31.6798951  55.0151980  22.8986232  31.3987130
  53.0451661  22.3135209  30.8028951  52.0126312  22.5426805  31.0664431
  53.2157911  22.5614184  29.7552624  53.2323755  21.2511999  30.9595023
  53.7751661  24.6215209  31.4398951  54.1751661  25.1545209  30.4038951
  53.1921661  25.2715209  32.3368951  52.8289629  24.7784849  33.1400751
  52.9711661  26.7125209  32.2508951  52.9718080  27.0247735  31.2065785
  51.6251661  27.0845209  32.8708951  50.8269244  26.6724318  32.2535687
  51.5677643  26.6562781  33.8716014  51.4811661  28.4935209  32.9508951
  50.6308799  28.7065567  33.3423397  54.0911661  27.4845209  32.9428951
  54.5051661  27.1315209  34.0488951  54.5531661  28.5835209  32.3348951
  54.2604984  28.8979908  31.4208089  55.5871661  29.3425209  33.0288951
  56.3543903  28.6643544  33.4024676  56.2441661  30.3495209  32.0788951
  56.9818239  30.9450735  32.6167403  56.7307736  29.8259369  31.2559899
  55.2761661  31.3205209  31.4588951  54.8021661  31.1205209  30.1688951
  55.1390252  30.2500222  29.6059939  53.9051661  32.0185209  29.5928951
  53.5387459  31.8511633  28.5800633  53.4791661  33.1255209  30.3098951
  52.7785248  33.8308818  29.8630532  53.9461661  33.3345209  31.5978951
  53.6137903  34.2034010  32.1659390  54.8411661  32.4325209  32.1658951
  55.2096312  32.5949780  33.1787826  55.0081661  30.0665209  34.2378951
  55.7471661  30.4835209  35.1308951  53.7501661  30.2055209  34.3758951
  53.1533297  29.8870833  33.6259064  53.1291661  30.8425209  35.5298951
  53.6358722  31.7825860  35.7481284  51.6511661  31.1355209  35.2548951
  51.1423139  30.2237793  34.9420120  51.1719583  31.5290987  36.1513082
  51.4261661  32.1495209  34.1658951  51.8901661  33.4525209  34.3038951
  52.4209339  33.7342548  35.2132968  51.6841661  34.3935209  33.2978951
  52.0543059  35.4120543  33.4148864  51.0051661  34.0305209  32.1438951
  50.8408663  34.7634450  31.3540041  50.5361661  32.7365209  31.9958951
  50.0012597  32.4483752  31.0909380  50.7491661  31.8015209  33.0068951
  50.3818416  30.7816978  32.8922943  53.2671661  29.9695209  36.7708951
  53.1111661  30.4485209  37.8948951  53.5871661  28.6775209  36.5608951
  53.7127218  28.3163421  35.6260770  53.7101661  27.7525209  37.6818951
  52.8147648  27.8030655  38.3014118  53.8761661  26.3175209  37.1788951
  53.8966275  25.6442173  38.0358331  53.0281532  26.0676186  36.5413037
  55.0771661  26.1795209  36.4418951  55.1624156  25.2736564  36.1357224
  54.8851661  28.1245209  38.5798951  54.9231661  27.7455209  39.7518951
  55.8081661  28.9075209  38.0498951  55.7320849  29.2202396  37.0925456
  56.9861661  29.3005209  38.8138951  57.1783679  28.5674392  39.5973164
  58.2141661  29.3795209  37.9068951  59.0934444  29.5750975  38.5206693
  58.3349153  28.4255772  37.3935618  58.0661661  30.4155209  36.9498951
  58.8460759  30.4487679  36.3911150  56.7711661  30.6405209  39.5098951
  57.6301661  31.0985209  40.2678951  55.6741661  31.2845209  39.2508951
  55.0072969  30.9087185  38.5919890  55.3921661  32.5815209  39.8568951
  56.2527837  33.2396864  39.7375016  54.1801661  33.2345209  39.1868951
  53.4011509  32.4898998  39.0232679  53.7903251  34.0354133  39.8151430
  54.4781661  33.8445209  37.8498951  55.5081661  33.5215209  37.0088951
  56.1875799  32.7357594  37.3391611  55.4541661  34.2995209  35.8768951
  56.1012584  34.2551058  35.1026868  54.3801661  35.1435209  35.9678951
  53.9131661  36.1105209  35.0748951  54.4533869  36.2566622  34.1395327
  52.7971661  36.8195209  35.4338951  52.4078467  37.5835983  34.7610532
  52.1381661  36.5855209  36.6538951  51.2497144  37.1535792  36.9296900
  52.6001661  35.6225209  37.5448951  52.0563456  35.4769962  38.4782667
  53.7411661  34.8835209  37.2028951  55.1461661  32.4405209  41.3548951
  54.5351661  31.4655209  41.8018951  55.6341661  33.4425209  42.0688951
  56.2281047  34.1414058  41.6459337  55.3721661  33.5325209  43.5008951
  54.9065589  32.6102901  43.8484572  56.6741661  33.7445209  44.2748951
  57.0931723  34.6970716  43.9505798  56.4172659  33.8024764  45.3326018
  57.7011661  32.6395209  44.0618951  57.8672234  32.5182247  42.9914685
  58.6338835  32.9345823  44.5426021  57.2591661  31.3075209  44.6378951
  56.8431661  31.2255209  45.7968951  57.3451661  30.2555209  43.8308951
  57.0641414  29.3439610  44.1628365  57.6911674  30.3722280  42.8892136
  54.3901661  34.6595209  43.8128951  54.5031661  35.7575209  43.2648951
  53.4811661  34.2695209  44.7338951  53.4015446  33.3508999  45.1460784
  52.4981661  35.2825209  45.1058951  52.2999390  35.9669082  44.2810198
  51.1631661  34.6435209  45.5488951  50.4724590  35.4350207  45.8396716
  50.5521661  33.8275209  44.4118951  51.2421489  33.0354817  44.1208649
  49.6127662  33.3861510  44.7447927  50.3648411  34.4776537  43.5572967
  51.3761661  33.7685209  46.7828951  51.7658004  34.3780106  47.5982536
  50.4266335  33.3252849  47.0829438  52.0882621  32.9770589  46.5492115
  53.0581661  36.1605209  46.2208951  53.9771661  35.7565209  46.9358951
  52.4921661  37.4325209  46.3458951  51.8529409  37.7422917  45.6278892
  52.8161661  38.3555209  47.4288951  53.3235268  37.8376655  48.2428424
  53.6971661  39.5235209  46.9338951  53.9209691  40.1785381  47.7758958
  55.0051661  38.9975209  46.3348951  54.7821742  38.3427480  45.4924892
  55.6114815  39.8359762  45.9921486  55.5539292  38.4390072  47.0931963
  52.9311661  40.3735209  45.9128951  52.8081599  39.7668931  45.0156923
  51.9526756  40.5891318  46.3420427  53.6251661  41.6795209  45.5508951
  54.6035998  41.4646871  45.1212280  53.0213105  42.2232197  44.8243628
  53.7481176  42.2869250  46.4475796  51.5291661  38.8905209  48.0528951
  50.4581661  38.8115209  47.4468951  51.6031661  39.2735209  49.3108951
  52.4395537  39.0013709  49.8073722  50.5721661  40.0055209  50.0408951
  50.9024186  40.1861246  51.0638393  50.2951661  41.3505209  49.3728951
  49.8944229  41.1844596  48.3729312  49.5708909  41.9089810  49.9658940
  51.7551661  42.4025209  49.2178951  49.2861661  39.1925209  50.1268951
  48.1971661  39.7215209  49.8948951  49.3941661  37.8495209  50.4898951
  50.2983933  37.4444313  50.6857904  48.2221661  36.9855209  50.5508951
  47.3468959  37.5286882  50.1945658  48.4091661  35.7285209  49.6808951
  47.5299549  35.0939187  49.7921058  48.5871661  36.0965209  48.2128951
  49.4665132  36.7307829  48.1008229  48.7169585  35.1889045  47.6234162
  47.7055296  36.6334795  47.8629050  49.5681661  35.0155209  50.1268951
  49.6885389  34.2308614  49.5870617  47.9281661  36.5715209  51.9908951
  46.9751661  35.8345209  52.2478951  48.6941661  37.0265209  52.9578951
  49.4381999  37.6658455  52.7175262  48.5571661  36.6175209  54.3508951
  47.8564424  35.7858062  54.4239427  49.9091661  36.1695209  54.9148951
  50.5836006  37.0236754  54.8544166  49.7515149  35.9050425  55.9605037
  50.5211661  34.9885209  54.1808951  49.8295486  34.1485153  54.2453660
  50.6573173  35.2670080  53.1359023  51.8631661  34.5875209  54.7778951
  52.5382068  35.4427545  54.7463579  51.7160646  34.2793916  55.8130361
  52.4731661  33.4825209  54.0428951  51.9625904  33.1298073  53.2460232
  53.6381661  32.9195209  54.3498951  54.3451661  33.3475209  55.3878951
  53.9969971  34.1090542  55.9526477  55.2282566  32.9098171  55.6084992
  54.0991661  31.9205209  53.6118951  53.5638489  31.5922117  52.8208524
  54.9838050  31.4918358  53.8437180  47.9861661  37.7485209  55.2008951
  48.6161661  38.1845209  56.1658951  46.7671661  38.2195209  54.8898951
  46.2551282  37.7334337  54.1676516  46.1611661  39.4045209  55.4898951
  46.8003942  40.2712248  55.3216358  44.7911661  39.6795209  54.8678951
  44.3653316  40.5683442  55.3334672  44.9185208  39.8551311  53.7996995
  43.9191661  38.5795209  55.0648951  43.0665568  38.7719792  54.6678852
  46.0211661  39.2485209  56.9998951  46.2751661  40.1895209  57.7528951
  45.6511661  38.0645209  57.4518951  45.4561507  37.2970584  56.8249425
  45.4581661  37.8545209  58.8848951  44.7635255  38.5974848  59.2767858
  44.8831661  36.4585209  59.1498951  45.5426533  35.7389947  58.6646551
  44.9029835  36.2992376  60.2280120  43.4631661  36.2715209  58.6358951
  43.4963741  36.3432392  57.5487638  43.1370168  35.2720947  58.9237717
  42.4851661  37.3005209  59.1818951  41.5651661  37.7155209  58.4428951
  42.6451661  37.6935209  60.3588951  46.7651661  38.0375209  59.6488951
  46.7781661  38.6145209  60.7388951  47.8071661  37.5885209  59.0528951
  47.7564001  37.0858478  58.1783427  49.1151661  37.7535209  59.6818951
  49.0735782  37.4102189  60.7155843  50.1761661  36.9365209  58.9368951
  49.8146149  35.9097529  58.8809722  50.2554240  37.3485618  57.9308929
  51.5441661  36.9565209  59.6018951  51.8808352  37.9928669  59.6291310
  51.4222124  36.5877752  60.6203513  52.5761661  36.1075209  58.8758951
  53.7821661  36.2165209  59.1928951  52.1741661  35.3295209  57.9828951
  49.5231661  39.2225209  59.7308951  49.9751661  39.7125209  60.7668951
  49.3681661  39.9025209  58.6438951  49.0564688  39.4686841  57.7867313
  49.6931661  41.3235209  58.6208951  50.7386553  41.4673388  58.8936003
  49.4681661  41.9035209  57.2208951  48.3921385  41.9232950  57.0480578
  49.8537947  42.9230184  57.2248311  50.1401661  41.1155209  56.1208951
  51.4481661  40.6565209  56.2678951  51.9816703  40.8729032  57.1934498
  52.0731661  39.9335209  55.2578951  53.0959768  39.5780930  55.3829200
  51.3851661  39.6625209  54.0898951  52.0001661  38.9475209  53.0868951
  52.8987941  38.6906259  53.3061491  50.0871661  40.1075209  53.9198951
  49.5462742  39.8953072  52.9976686  49.4721661  40.8305209  54.9358951
  48.4488223  41.1842907  54.8105381  48.8601661  42.0915209  59.6408951
  49.3771661  42.9675209  60.3378951  47.5821661  41.7495209  59.7278951
  47.1925604  41.0607159  59.1003170  46.6891661  42.4015209  60.6798951
  46.7091770  43.4804652  60.5263439  45.2541661  41.9075209  60.4908951
  45.2651903  40.8192378  60.4307497  44.6619689  42.2173211  61.3519562
  44.6061661  42.4555209  59.2348951  45.1751661  43.3145209  58.5538951
  43.4141661  41.9665209  58.9178951  42.9393795  42.2982986  58.0904889
  42.9870768  41.2647608  59.5054564  47.1431661  42.1745209  62.1188951
  47.1691661  43.1105209  62.9218951  47.5081661  40.9765209  62.4068951
  47.4821372  40.2411790  61.7150179  47.9241661  40.6355209  63.7638951
  47.1655197  40.9619132  64.4752479  48.1081661  39.1235209  63.9048951
  48.2275381  38.8801627  64.9606538  47.2217959  38.6229717  63.5151538
  49.2501661  38.6875209  63.1878951  49.3480187  37.7378645  63.2887776
  49.2161661  41.3515209  64.1398951  49.4051661  41.7335209  65.2968951
  49.9941661  41.6095209  63.1258951  49.7545625  41.3550585  62.1782991
  51.2881661  42.2395209  63.3668951  51.6092267  42.0412585  64.3894954
  52.3431661  41.6875209  62.4078951  51.9646617  41.8258074  61.3951215
  53.2463642  42.2827710  62.5420990  52.6671661  40.2165209  62.6318951
  53.1465484  40.1098823  63.6049941  51.7364683  39.6492449  62.6218239
  53.5921661  39.6495209  61.5708951  53.9111661  40.3215209  60.5848951
  54.0281661  38.4105209  61.7648951  54.6464251  37.9844267  61.0893945
  53.7395679  37.8998101  62.5870793  51.1961661  43.7575209  63.2258951
  52.1731661  44.4675209  63.4598951  50.0701661  44.1825209  62.8228951
  49.2975741  43.5611600  62.6302517  49.8901661  45.6085209  62.5718951
  48.9287723  45.7794113  62.0875217  49.9221661  46.3925209  63.8848951
  50.8936131  46.2129699  64.3454942  49.8296174  47.4490537  63.6333532
  48.8181661  46.0045209  64.8608951  48.8544960  44.9259193  65.0138640
  48.9915424  46.5116189  65.8100497  47.4361661  46.3765209  64.3578951
  47.1421661  47.5525209  64.1228951  46.5761661  45.3765209  64.1938951
  45.6418572  45.5674617  63.8611642  46.8609017  44.4302620  64.4027518
  50.9581661  46.1375209  61.6188951  51.5441661  47.1945209  61.8608951
  51.1581661  45.3215209  60.6158951  50.6696661  44.4451540  60.4999295
  52.1921661  45.6725209  59.6438951  52.4808462  46.7122629  59.7978418
  53.4231661  44.7915209  59.8338951  53.1519547  43.7479835  59.6739765
  54.1916614  45.0806235  59.1170025  53.8066177  44.9156313  60.8466442
  51.6671661  45.5505209  58.2168951  50.7151661  44.8095209  57.9618951
  52.3791661  46.3645209  57.3588951  53.0586815  47.0519920  57.6517120
  52.0851661  46.2455209  55.9348951  51.0167239  46.0850378  55.7907581
  52.4921661  47.5215209  55.1948951  53.5654047  47.5924923  55.3715907
  52.3088390  47.3699362  54.1311690  51.8151661  48.8135209  55.6488951
  52.1136781  49.0292529  56.6747855  52.2221661  49.9735209  54.7468951
  51.9235499  49.7587075  53.7208433  51.7310846  50.8863208  55.0841428
  53.3032321  50.1059661  54.7899661  50.2991661  48.6475209  55.6628951
  50.0272321  47.8460166  56.3497299  49.8342533  49.5779657  55.9888243
  49.9509940  48.3997717  54.6601511  52.8051661  45.0415209  55.3318951
  53.8241661  44.5925209  55.8628951  52.1801661  44.4685209  54.2468951
  51.2313035  44.7086432  53.9976959  52.8671661  43.4535209  53.4558951
  53.1233456  42.6039394  54.0888900  51.9721661  42.9625209  52.3178951
  51.1207844  42.4222187  52.7318055  51.6149019  43.8160883  51.7418005
  52.8131661  41.8705209  51.1508951  54.1761661  43.9945209  52.8908951
  54.2091661  45.0955209  52.3398951  55.2221661  43.2175209  52.9718951
  55.1607775  42.2983869  53.3860489  56.5291661  43.6885209  52.5228951
  56.5127790  44.7727405  52.4119962  57.6101661  43.3175209  53.5388951
  58.5529406  43.7642643  53.2231485  57.3273282  43.7174023  54.5126495
  57.8031661  41.8195209  53.6678951  57.1641661  41.0355209  52.9608951
  58.6851661  41.4105209  54.5728951  58.8525333  40.4226293  54.7000097
  59.1844174  42.0892901  55.1297805  56.8821661  43.1295209  51.1468951
  58.0331661  43.2145209  50.7148951  55.9301661  42.3975209  50.5168951
  55.1239183  42.1439170  51.0698407  56.0061661  41.9135209  49.1408951
  55.0342844  41.5130443  48.8525144  56.3631661  43.0575209  48.1938951
  57.3381421  43.4629501  48.4643560  56.3963616  42.6853330  47.1699447
  55.6101220  43.8418276  48.2706214  57.0251661  40.7845209  49.0108951
  57.6541661  40.6245209  47.9638951  57.2801661  40.0915209  50.0708951
  56.9456053  40.3792173  50.9794099  58.1051661  38.8915209  49.9858951
  58.9062016  39.0468338  49.2631785  58.7331661  38.5475209  51.3508951
  59.2932572  37.6175590  51.2530735  59.6681661  39.6565209  51.8198951
  59.1086513  40.5867571  51.9184017  60.0968774  39.3870389  52.7851335
  60.4684394  39.7898241  51.0919572  57.6911661  38.3735209  52.3188951
  58.0783503  38.1590588  53.1707723  57.2851661  37.7055209  49.4868951
  56.0621661  37.6845209  49.6338951  58.0221661  36.7755209  48.8498951
  59.0212940  36.8716115  48.7376033  57.3681661  35.6155209  48.2558951
  56.6384443  35.9426523  47.5152263  58.3951661  34.7145209  47.5658951
  59.1682646  34.4458968  48.2857973  57.8939925  33.8113462  47.2177566
  58.9871661  35.3805209  46.4638951  59.6270486  34.8000449  46.0453287
  56.6011661  34.8155209  49.3028951  57.1161661  34.5555209  50.3938951
  55.3011661  34.4845209  48.9448951  54.9112938  34.7394593  48.0487336
  54.4391661  33.7995209  49.9058951  55.0187759  33.5150886  50.7841035
  53.2961661  34.7155209  50.3498951  52.7846740  35.0537307  49.4487352
  52.6140203  34.1131703  50.9498541  53.7511661  35.9225209  51.1578951
  54.2504540  35.5474041  52.0512594  54.4642003  36.4805517  50.5510317
  52.6061661  36.8375209  51.5638951  52.8291661  37.7565209  52.3838951
  51.4801661  36.6305209  51.0628951  53.8811661  32.5065209  49.3208951
  52.8621661  31.9955209  49.7918951  54.6371661  32.0425209  48.2628951
  55.4333653  32.5209774  47.8663531  54.2431661  30.7665209  47.6878951
  55.1117751  30.1081120  47.6986410  53.4581107  30.3416830  48.3134349
  53.7311661  30.8845209  46.2658951  53.6901661  31.9805209  45.7048951
  53.3541661  29.7175209  45.6988951  53.3021661  28.2195209  46.3138951
  52.6552629  28.1775986  47.1901707  54.2995216  27.8711141  46.5822117
  52.7321661  27.4755209  45.1398951  51.6565767  27.3779586  45.2871636
  53.1856565  26.4847780  45.1102923  53.0451661  28.2425209  43.8968951
  52.3101967  28.0048132  43.1278607  54.0468986  28.0472759  43.5141275
  52.9181661  29.7125209  44.3008951  53.5926007  30.3581184  43.7383649
  51.4821661  30.2035209  44.1278951  50.7561661  30.3575209  45.1138951
  51.1071661  30.4125209  42.9828951  51.7969092  30.4291281  42.2452787
  49.7181661  30.6905209  42.6368951  49.3079376  31.4765538  43.2709015
  49.5751661  31.0985209  41.1538951  50.0787297  30.3568749  40.5338263
  48.0991661  31.1795209  40.7548951  47.5950066  31.9213491  41.3742615
  48.0209108  31.4683345  39.7067713  47.6293265  30.2066257  40.8992030
  50.2851661  32.4335209  40.8968951  49.7111078  33.2066673  41.4075834
  51.2763373  32.3621289  41.3447594  50.4191661  32.7915209  39.4228951
  49.4283147  32.8635522  38.9744258  50.9316947  33.7486188  39.3260587
  50.9935426  32.0190121  38.9116011  48.8561661  29.4645209  42.9328951
  49.2201661  28.3415209  42.5738951  47.7931661  29.7395209  43.6008951
  47.6185362  30.6580973  43.9827606  46.8201661  28.6855209  43.8628951
  47.2330001  27.7200832  43.5703251  46.4721661  28.6375209  45.3538951
  45.9681342  29.5870464  45.5340406  45.7702718  27.8185813  45.5113191
  47.6481661  28.4935209  46.3208951  48.3289523  29.3333176  46.1817098
  47.1491661  28.4775209  47.7618951  46.4686387  27.6376654  47.9019805
  47.9968335  28.3745416  48.4393581  46.6248640  29.4089043  47.9757473
  48.4441661  27.2305209  46.0108951  48.8286244  27.2835699  44.9923289
  49.2768719  27.1447253  46.7089936  47.7968462  26.3591053  46.1094379
  45.5531661  28.8965209  43.0408951  45.0191661  30.0085209  42.9908951
  45.1621661  27.7685209  42.3718951  45.6681341  26.8957757  42.4210023
  43.9911661  27.8415209  41.5038951  43.2539030  28.5178841  41.9364169
  44.3791661  28.3625209  40.1178951  45.4229594  28.6722226  40.1696619
  44.2818268  27.5301566  39.4209054  43.5291661  29.5265209  39.6378951
  42.4936552  29.1920212  39.5752218  43.6067133  30.3318683  40.3683088
  43.9821661  30.0325209  38.2748951  43.8494761  29.2414038  37.5369073
  43.3782132  30.8954341  37.9943223  45.3881661  30.4295209  38.2878951
  45.8407298  30.4719321  39.1898301  46.0991661  30.7355209  37.2058951
  45.5481661  30.6945209  35.9988951  44.5790382  30.4284887  35.8983070
  46.1005995  30.9295447  35.1866877  47.3721661  31.0835209  37.3338951
  47.7943517  31.1142948  38.2509079  47.9138147  31.3162321  36.5137969
  43.3181661  26.4785209  41.3808951  43.9741661  25.4805209  41.0818951
  41.9461661  26.5495209  41.6248951  41.5074237  27.4027769  41.9404243
  41.1191661  25.3545209  41.4918951  41.5356136  24.7010328  40.7253288
  41.0691661  24.5865209  42.8148951  42.0778949  24.5245237  43.2232110
  40.4292895  25.1304416  43.5097391  40.5251661  23.1825209  42.6538951
  40.2321661  22.7405209  41.5408951  40.3871661  22.4685209  43.7648951
  40.0285441  21.5256880  43.7143368  40.6414573  22.8715476  44.6554041
  39.7081661  25.6985209  41.0268951  38.7471661  25.5625209  41.7868951
  39.6281661  26.1875209  39.7928951  40.6761661  25.9935209  38.7328951
  41.0688655  24.9773596  38.7690022  41.4920079  26.7029150  38.8716805
  39.8891661  26.2635209  37.4828951  39.5837525  25.3064680  37.0599635
  40.5384193  26.7814885  36.7770047  38.7071661  27.1055209  37.8368951
  37.8760390  26.8580917  37.1765123  38.9087963  28.1752595  37.7811779
  38.3631661  26.7135209  39.2748951  38.0819126  27.5711936  39.8859534
  37.2391661  25.6785209  39.3028951  37.4431661  24.5275209  38.9058951
  36.0931661  26.0655209  39.8008951  36.0077875  26.9996007  40.1754678
  34.9261661  25.1985209  39.8378951  34.0447839  25.8078154  39.6378332
  35.0352553  24.4496783  39.0533993  34.7481661  24.4955209  41.1698951
  33.6931661  23.9125209  41.4338951  35.7971661  24.5545209  41.9738951
  36.6665081  24.9755192  41.6787607  35.7391661  23.9425209  43.2968951
  34.9009225  23.2474371  43.3449075  37.0281661  23.1745209  43.5908951
  37.3206937  22.6254705  42.6958697  37.8086295  23.8904384  43.8486531
  36.8761661  22.1915209  44.7338951  35.8201661  21.5765209  44.9018951
  37.9291661  22.0345209  45.5268951  37.8808407  21.3911529  46.3039679
  38.7737859  22.5591627  45.3494992  35.4831661  24.9845209  44.3848951
  36.0891661  24.9285209  45.4568951  34.7021661  25.9685209  44.0878951
  34.4077464  26.0087652  43.1225989  34.2731661  27.0345209  44.9868951
  35.0267676  27.1914945  45.7586096  34.0821661  28.3425209  44.2168951
  33.8322135  29.1309691  44.9268052  35.0141425  28.5927619  43.7100424
  32.9771661  28.2535209  43.1828951  33.1251661  27.5875209  42.1548951
  31.8631661  28.9255209  43.4438951  31.0959400  28.8997100  42.7875433
  31.7875852  29.4597387  44.2977099  32.9911661  26.6625209  45.7278951
  32.3741661  25.6385209  45.4308951  32.6241661  27.3925209  46.7358951
  33.2799642  28.0705045  47.0969582  31.3361661  27.2495209  47.4078951
  31.2119466  26.2232545  47.7535045  31.2551661  28.1855209  48.6158951
  32.1062087  27.9662385  49.2606749  31.3317087  29.2093125  48.2497093
  29.9671661  28.0255209  49.4058951  29.1041661  27.2155209  49.0058951
  29.8141661  28.7175209  50.4358951  30.1811661  27.5295209  46.4488951
  29.9021661  28.6855209  46.1248951  29.4061661  26.4745209  46.0628951
  29.5568636  25.5690850  46.4842920  28.3941661  26.5915209  45.0178951
  28.7763213  27.2035059  44.2008694  28.0311661  25.2125209  44.4668951
  27.6851710  24.6106168  45.3071914  27.2133330  25.3529731  43.7601263
  29.1831661  24.5005209  43.7738951  30.0317057  24.4701917  44.4573873
  28.8695602  23.4832654  43.5394926  29.5901661  25.2145209  42.4908951
  28.7068674  25.3231980  41.8615530  29.9733450  26.2010235  42.7518283
  30.6601661  24.4385209  41.7338951  31.4911655  24.2485648  42.4132016
  30.2316431  23.4898436  41.4106637  31.1531661  25.1925209  40.5438951
  31.5506744  26.0714317  40.8432324  31.8590412  24.6480667  40.0691215
  30.3833772  25.3682684  39.9141040  27.1431661  27.2925209  45.5418951
  26.3291661  27.7875209  44.7588951  27.0411661  27.3705209  46.8308951
  27.6809528  26.9003437  47.4551593  25.9331661  28.1225209  47.4128951
  25.0056603  27.8701936  46.8989271  25.7771661  27.7855209  48.8958951
  24.8391504  28.2078426  49.2562700  25.7548056  26.7017772  49.0103489
  26.8541661  28.3175209  49.6478951  26.7378479  28.0954821  50.5745928
  26.1351661  29.6235209  47.2418951  25.1661661  30.3815209  47.1708951
  27.3601661  29.9895209  47.2438951  28.1112960  29.3338621  47.4051863
  27.6971661  31.3965209  47.0668951  26.9381619  32.0190271  47.5407071
  29.0531661  31.7105209  47.7018951  29.0086976  31.3794038  48.7394322
  29.8032708  31.1280145  47.1669846  29.4281661  33.1835209  47.6558951
  29.6564996  33.4473455  46.6232474  28.5730570  33.7661230  47.9986273
  30.6331661  33.4865209  48.5348951  30.3842030  33.2615814  49.5719672
  31.4706280  32.8641419  48.2196152  31.0311661  34.8875209  48.4428951
  30.5665613  35.4464187  47.7415571  31.9491661  35.4675209  49.2108951
  32.5851661  34.7745209  50.1468951  32.3715968  33.7962856  50.2793478
  33.2798859  35.2284821  50.7225542  32.2351661  36.7515209  49.0398951
  31.7545709  37.2822734  48.3275538  32.9321999  37.1924681  49.6228258
  27.7101661  31.7755209  45.5888951  27.1661661  32.8115209  45.2018951
  28.3411661  30.9605209  44.7948951  28.7959503  30.1585479  45.2073391
  28.4651661  31.1615209  43.3548951  27.7175991  31.8813304  43.0215528
  29.8611661  31.6945209  42.9838951  30.6075612  30.9597407  43.2857109
  29.9711661  31.9435209  41.4828951  29.2253371  32.6785932  41.1803932
  30.9670480  32.3194997  41.2484630  29.7998209  31.0106396  40.9457976
  30.0941661  32.9265209  43.6788951  30.9638151  33.2630774  43.4507705
  28.1991661  29.8605209  42.6038951  29.0671661  28.9885209  42.5338951
  27.0621661  29.7395209  42.0248951  25.9361661  30.6855209  42.1578951
  26.2250370  31.6751086  41.8038188  25.6140064  30.7517601  43.1970893
  24.9051661  30.0365209  41.2788951  24.9583826  30.4993767  40.2934857
  23.9226463  30.2204480  41.7135523  25.1921661  28.5715209  41.2098951
  24.9176441  28.1950390  40.2245028  24.6734485  27.9951553  41.9759462
  26.7061661  28.4585209  41.4068951  26.9789880  27.6643609  42.1018601
  27.4131661  28.2315209  40.0728951  27.7311661  27.0915209  39.7248951
  27.6261661  29.3885209  39.3098951  27.3572527  30.3057503  39.6362004
  28.2071661  29.2715209  37.9768951  28.9995411  28.5230791  37.9856102
  27.1451661  28.8475209  36.9598951  27.6188263  28.8471928  35.9781898
  26.8389791  27.8330766  37.2153404  25.9241661  29.7535209  36.9328951
  25.4887425  29.7737679  37.9319432  26.2468914  30.7575283  36.6573601
  24.8821661  29.2635209  35.9348951  25.3272468  29.2288709  34.9405101
  24.5547067  28.2639732  36.2208568  23.7171661  30.1445209  35.8958951
  22.9680969  29.9370722  36.5408445  23.5821661  31.1855209  35.0808951
  24.5391661  31.4985209  34.2148951  25.3802117  30.9408590  34.1729959
  24.4215172  32.2927800  33.6021872  22.4811661  31.9205209  35.1288951
  21.7495173  31.6863538  35.7846052  22.3784263  32.7117027  34.5095610
  28.8481661  30.5865209  37.5418951  28.7451661  31.5955209  38.2418951
  29.5731661  30.4415209  36.4568951  29.8411040  29.5516619  36.0613453
  30.0581661  31.6575209  35.8148951  30.5491476  32.2937939  36.5512327
  31.0661661  31.3155209  34.7138951  30.5585251  30.5523163  34.1240489
  31.2144219  32.2065611  34.1038396  32.4221661  30.7835209  35.1758951
  32.2624212  29.9839953  35.8993183  33.2141661  30.2445209  33.9898951
  33.3747166  31.0436445  33.2662073  34.1773487  29.8694214  34.3358439
  32.6574745  29.4345931  33.5185018  33.2071661  31.8755209  35.8958951
  32.6448648  32.2143058  36.7660339  34.1701218  31.4791987  36.2179919
  33.3682146  32.7144344  35.2188526  28.9021661  32.4615209  35.2298951
  27.8431661  31.9065209  34.9308951  29.1011661  33.8045209  35.0268951
  30.3751661  34.5765209  35.5648951  31.1853434  34.5773838  34.8357090
  30.7339262  34.1582651  36.5053483  29.7561661  35.9335209  35.7408951
  30.5360378  36.6838762  35.6110251  29.3556748  35.9978288  36.7526127
  28.6701661  36.0935209  34.7258951  29.1087041  36.3708369  33.7673132
  27.9211196  36.8327883  35.0096428  28.0251661  34.7105209  34.6218951
  27.1983197  34.5821216  35.3204198  27.5351661  34.4435209  33.1988951
  28.3111661  33.9995209  32.3488951  26.2091661  34.7415209  32.9798951
  25.6348237  35.0533286  33.7499640  25.5831661  34.5765209  31.6728951
  26.2079920  33.9449800  31.0413511  24.2101661  33.9185209  31.8158951
  23.8518821  33.6344783  30.8264247  24.3104990  33.0271274  32.4351292
  23.2841661  34.8085209  32.4158951  22.4307465  34.3762490  32.4959936
  25.4421661  35.9145209  30.9538951  25.5231661  36.9725209  31.5808951
  25.2561661  35.7915209  29.6938951  25.3135245  34.8978621  29.2267942
  25.0031661  36.9805209  28.8848951  25.8261627  37.6860357  28.9990210
  24.8801661  36.6085209  27.4078951  24.0897005  35.8663439  27.2963762
  24.6214449  37.5022441  26.8400728  26.1011661  36.0755209  26.9198951
  26.0031908  35.8486215  25.9922544  23.7411661  37.7025209  29.3438951
  23.6931661  38.9355209  29.3508951  22.7351661  36.9915209  29.7288951
  22.8088028  35.9860604  29.6678526  21.4761661  37.5665209  30.1948951
  21.0890206  38.2359836  29.4267563  20.4481661  36.4655209  30.4458951
  20.8176449  35.7922083  31.2193520  19.5089274  36.9121945  30.7721060
  20.2831185  35.9051714  29.5256414  21.6851661  38.3935209  31.4608951
  21.1061661  39.4725209  31.6078951  22.5001661  37.8605209  32.3538951
  22.8955722  36.9383159  32.2386075  22.8011661  38.5945209  33.5798951
  21.8740335  38.8609945  34.0873556  23.6471661  37.7375209  34.5248951
  24.4684085  37.3244044  33.9392374  24.0464978  38.4002642  35.2926227
  22.8751661  36.6045209  35.1848951  22.1469751  37.0514000  35.8617538
  22.3528650  36.0612245  34.3974119  23.7631661  35.6445209  35.9588951
  23.3191661  35.1085209  36.9988951  24.9151661  35.4245209  35.5198951
  23.5191661  39.9045209  33.2748951  23.2141661  40.9405209  33.8728951
  24.4591661  39.8395209  32.3778951  24.7383085  38.9611784  31.9647447
  25.1761661  41.0485209  31.9838951  25.5784768  41.5753668  32.8491573
  26.3371661  40.7305209  31.0158951  25.9619104  40.0995893  30.2101609
  26.9171661  42.0155209  30.4278951  27.2930696  42.6468072  31.2330505
  27.7334618  41.7689296  29.7489587  26.1394231  42.5490670  29.8815015
  27.4231661  39.9275209  31.7298951  27.0017358  38.9916948  32.0969482
  28.2335361  39.7120350  31.0335001  27.8101567  40.5051006  32.5693836
  24.2061661  42.0365209  31.3358951  24.2321661  43.2315209  31.6418951
  23.3371661  41.5485209  30.4968951  23.3582977  40.5685057  30.2535374
  22.3521661  42.4035209  29.8408951  22.8585883  43.2140525  29.3168012
  21.5341661  41.6015209  28.8268951  21.2636729  40.6589253  29.3027587
  20.6307532  42.1735429  28.6153863  22.2711661  41.3195209  27.5268951
  23.0770153  40.6201770  27.7496641  21.5633186  40.8514509  26.8428180
  22.8491661  42.5695209  26.8808951  24.0201661  42.5405209  26.4408951
  22.1231661  43.5865209  26.8138951  21.4271661  43.0615209  30.8598951
  21.0821661  44.2375209  30.7258951  20.9821661  42.2925209  31.7988951
  21.1512934  41.2969101  31.8148414  20.1591661  42.8715209  32.8558951
  19.2606483  43.3124671  32.4242338  19.7411661  41.7945209  33.8618951
  19.0627397  41.0843838  33.3890927  20.6186737  41.2655320  34.2337165
  19.0231661  42.3385209  35.0678951  19.7111661  42.5875209  36.2488951
  20.7811729  42.3847782  36.2945122  19.0491661  43.0905209  37.3668951
  19.5991101  43.2826145  38.2881781  17.6891661  43.3465209  37.3058951
  17.1674317  43.7394468  38.1785362  16.9921661  43.1025209  36.1338951
  15.9222521  43.3044011  36.0826262  17.6601661  42.5985209  35.0198951
  17.1124413  42.4041212  34.0977746  20.9071661  43.9915209  33.5688951
  20.3531661  45.0715209  33.7898951  22.1021661  43.7045209  33.9958951
  22.4551901  42.7638620  33.8927732  22.9441661  44.6895209  34.6648951
  22.4997823  44.9667652  35.6208019  24.3371661  44.1165209  34.9218951
  24.2773277  43.2371208  35.5631236  24.8203630  43.8482879  33.9823889
  25.4571661  45.2655209  35.7508951  26.4993311  44.4401252  35.7897842
  23.0561661  45.9655209  33.8388951  22.9221661  47.0675209  34.3708951
  23.2431661  45.8915209  32.5368951  23.2934578  44.9574574  32.1559813
  23.4231661  47.0195209  31.6288951  24.1935855  47.6863124  32.0161190
  23.8521661  46.5285209  30.2438951  23.1810298  45.6927782  30.0458817
  23.6593092  47.3264790  29.5268393  25.3031661  46.0605209  30.1078951
  25.5473821  45.4098548  30.9475932  25.4941661  45.2975209  28.8018951
  25.2505682  45.9477263  27.9616619  26.5308855  44.9711537  28.7194441
  24.8377952  44.4273921  28.7895130  26.2571661  47.2475209  30.1848951
  26.1361768  47.7498998  31.1446224  27.2841767  46.8958927  30.0863646
  26.0340796  47.9465022  29.3788203  22.1411661  47.8375209  31.5168951
  22.1801661  49.0115209  31.1418951  21.0331661  47.2255209  31.8478951
  21.0395786  46.2626604  32.1527850  19.7471661  47.9075209  31.7358951
  19.7206064  48.4956593  30.8185691  18.6031661  46.8945209  31.6998951
  17.7064965  47.3887739  31.3260010  18.8749570  46.0797719  31.0287664
  18.3511661  46.3755209  32.9948951  17.6308297  45.7424221  32.9512935
  19.5371661  48.8835209  32.8898951  18.6761661  49.7625209  32.8168951
  20.3081661  48.7525209  33.9508951  20.9888369  48.0071151  33.9849078
  20.1811661  49.6275209  35.1128951  19.1329971  49.7099218  35.4003859
  20.9701661  49.0635209  36.2968951  21.9937083  49.0092367  35.9260665
  20.9174301  49.7851022  37.1121493  20.5391661  47.6875209  36.8058951
  20.4771183  46.9991875  35.9630143  21.5481661  47.1585209  37.8208951
  21.6104263  47.8461380  38.6643435  21.2285725  46.1783291  38.1747095
  22.5273222  47.0726588  37.3497459  19.1441661  47.7575209  37.4178951
  18.4326675  48.0947622  36.6641462  18.8534741  46.7695254  37.7749165
  19.1478229  48.4583814  38.2526886  20.6661661  51.0355209  34.7868951
  21.7941661  51.2165209  34.3218951  19.8891661  52.0435209  35.0668951
  19.0252544  51.8652145  35.5587920  20.1851661  53.4145209  34.6628951
  20.8233388  53.4057614  33.7792899  18.8971661  54.1905209  34.3318951
  19.1568163  55.2321657  34.1430615  18.2041661  53.6095209  33.1048951
  17.9437780  52.5679574  33.2931585  17.2979641  54.1779220  32.8955697
  18.8744848  53.6666142  32.2472741  18.0021661  54.1185209  35.4498951
  17.1975654  54.6013937  35.2472827  20.9561661  54.1455209  35.7578951
  21.7141661  55.0765209  35.4758951  20.7671661  53.6975209  36.9568951
  20.1454420  52.9301414  37.1682884  21.4411661  54.3675209  38.0648951
  21.5565812  55.4278046  37.8400016  20.6251661  54.2265209  39.3528951
  20.4655071  53.1614175  39.5207132  21.2269608  54.6354829  40.1644944
  19.2801661  54.9405209  39.3088951  19.4408644  55.9672232  38.9800192
  18.6347979  54.4278675  38.5956011  18.5871661  54.9665209  40.6578951
  19.0981661  55.5435209  41.6238951  17.4171661  54.3405209  40.7358951
  16.9125972  54.3267519  41.6107220  17.0381028  53.8815113  39.9199769
  22.8461661  53.8115209  38.2728951  23.0191661  52.6075209  38.4818951
  23.8701661  54.7655209  38.1988951  23.7219046  55.7331068  37.9501073
  25.2361661  54.3165209  38.4468951  25.4839450  53.4988597  37.7700385
  26.2291661  55.4605209  38.2168951  26.1825957  55.7211336  37.1595345
  25.8950862  56.3085686  38.8146457  27.6501661  55.1135209  38.5868951
  28.2971661  55.7655209  39.6348951  27.7598331  56.5344108  40.1900357
  29.6091661  55.4485209  39.9768951  30.1068014  55.9633327  40.7987405
  30.2801661  54.4725209  39.2658951  31.5791661  54.1565209  39.6008951
  31.9129155  54.6735847  40.3376828  29.6601661  53.8115209  38.2218951
  30.1908472  53.0415274  37.6619058  28.3491661  54.1355209  37.8878951
  27.8527715  53.6196757  37.0659485  25.3831661  53.7765209  39.8638951
  25.9371661  52.6935209  40.0678951  24.8961661  54.5935209  40.8208951
  24.5845496  55.5138441  40.5452147  24.8471661  54.2415209  42.2368951
  24.9671918  53.1644580  42.3536361  25.9691661  54.9445209  43.0038951
  25.8008819  56.0174949  42.9116646  25.8785681  54.6516522  44.0498970
  27.3641661  54.6055209  42.5018951  27.3851886  54.8025416  41.4300548
  28.0662996  55.2691264  43.0066085  27.7591661  53.1605209  42.7588951
  27.0621661  52.4905209  43.5528951  28.7621661  52.6915209  42.1718951
  23.4931661  54.5935209  42.8468951  22.7321661  55.3755209  42.2708951
  23.1611661  53.9615209  44.0178951  23.7716718  53.2325851  44.3585338
  21.9471661  54.2555209  44.7718951  21.6628307  55.2968085  44.6203272
  20.7961661  53.3625209  44.3088951  19.8974483  53.6316360  44.8638569
  20.6287648  53.5285287  43.2446967  21.0971661  51.9955209  44.5318951
  20.3626656  51.4535247  44.2346598  22.1711661  54.0735209  46.2698951
  23.2161661  53.5715209  46.6898951  21.2241661  54.5705209  47.0298951
  20.4941073  55.1419855  46.6292186  21.1941661  54.3175209  48.4618951
  20.4281250  54.9556057  48.9024948  20.9277077  53.2718095  48.6154750
  22.5201661  54.5945209  49.1448951  23.1061661  55.6645209  48.9618951
  22.9701661  53.5355209  49.9678951  22.3101661  52.1595209  50.0858951
  22.1462621  51.7205203  49.1017639  21.3599696  52.2276614  50.6155953
  23.3551661  51.4275209  50.8768951  24.0061648  50.9023746  50.1779522
  22.8527838  50.7037078  51.5186176  24.1181661  52.4235209  51.6908951
  25.1353438  52.0643351  51.8472093  23.6555068  52.6339631  52.6551358
  24.1401661  53.6925209  50.8338951  23.9985502  54.5968507  51.4256982
  25.4461661  53.7975209  50.0498951  26.4771661  54.1805209  50.6088951
  25.3501661  53.4585209  48.6758951  24.4747555  53.1047528  48.3172817
  26.4841661  53.5525209  47.7628951  26.1849442  53.2181405  46.7695396
  26.9801661  54.9965209  47.6638951  27.2695761  55.3095495  48.6670672
  27.8575874  54.9944590  47.0171898  25.9461661  55.9625209  47.1108951
  25.6947032  55.6490153  46.0976916  25.0572414  55.9063837  47.7391971
  26.5501661  57.6945209  47.0738951  24.9901661  58.5745209  46.7868951
  24.2992125  58.3660525  47.6037323  25.1808913  59.6465763  46.7376823
  24.5516521  58.2404794  45.8465638  27.6211661  52.6415209  48.2108951
  28.7931661  53.0005209  48.0948951  27.1571661  51.5365209  48.9358951
  26.1959996  51.4845468  49.2417658  28.0641661  50.4575209  49.3168951
  29.0162781  50.5756829  48.7995752  28.3211661  50.4805209  50.8258951
  29.0593357  49.7097991  51.0476894  28.7302081  51.4584506  51.0797418
  27.0671661  50.2295209  51.6428951  26.0721661  49.7085209  51.0928951
  27.0721661  50.5575209  52.8498951  27.5071661  49.0995209  48.8998951
  26.6321661  49.0195209  48.0358951  28.0571661  47.9945209  49.3908951
  28.7874518  48.0971908  50.0809974  27.7031661  46.6475209  48.9528951
  27.8148400  46.5700063  47.8714056  28.6141661  45.6115209  49.6138951
  28.2751581  44.6286666  49.2865267  29.6243720  45.7884114  49.2447151
  28.6131661  45.6675209  51.1348951  28.8554657  46.6844911  51.4433808
  27.6154750  45.4087837  51.4895350  29.6301661  44.7005209  51.7298951
  29.3449770  43.6858516  51.4520242  30.6100502  44.9295714  51.3110126
  29.6881661  44.8135209  53.2468951  29.7115754  45.8707305  53.5112067
  28.7887573  44.3562630  53.6593003  30.8941661  44.1335209  53.8078951
  31.7276960  44.5573620  53.4262062  30.8976948  44.2296840  54.8133006
  30.8724505  43.1537883  53.5634541  26.2431661  46.3335209  49.2638951
  25.7041661  45.3285209  48.7938951  25.5291661  47.2715209  49.9378951
  25.9727680  48.1262483  50.2424570  24.1281661  47.0565209  50.2868951
  23.8805838  46.0001558  50.1825163  23.8621661  47.4805209  51.7328951
  24.1200925  48.5364891  51.8135457  22.7954921  47.3524898  51.9170538
  24.6511661  46.6875209  52.7588951  25.7124804  46.8293366  52.5549316
  24.4158004  47.0820024  53.7473734  24.2631661  44.8945209  52.7168951
  22.6991661  44.8855209  53.6338951  21.9697390  45.5076890  53.1152990
  22.3227757  43.8647919  53.7012985  22.8633631  45.2786644  54.6371791
  23.2071661  47.8205209  49.3408951  21.9861661  47.7915209  49.4988951
  23.7761661  48.4915209  48.3938951  24.7813104  48.4813037  48.2955079
  22.9991661  49.3255209  47.4798951  22.3201365  49.9487382  48.0618041
  23.9241661  50.2335209  46.6728951  24.6041533  49.6238419  46.0779086
  23.3293240  50.8638368  46.0118619  24.5002981  50.8620064  47.3519954
  22.1481661  48.4705209  46.5438951  22.6501661  47.5295209  45.9258951
  20.8331661  48.8435209  46.4518951  20.4869702  49.5576418  47.0766183
  19.8911661  48.2095209  45.5368951  20.2664366  47.2298771  45.2409741
  18.5301661  48.0285209  46.2098951  18.1849706  48.9986648  46.5673305
  17.8261428  47.6418584  45.4730483  18.5791661  47.0695209  47.3828951
  19.3951661  46.1425209  47.4078951  17.7101661  47.2825209  48.3628951
  17.7013624  46.6720215  49.1674526  17.0615635  48.0541581  48.2997176
  19.7411661  49.0055209  44.2458951  19.9571661  50.2205209  44.2318951
  19.4481661  48.3215209  43.1968951  19.4378722  47.3139143  43.2656137
  19.1761661  48.9285209  41.8998951  19.0568218  48.1501485  41.1462423
  17.8891661  49.7595209  41.9538951  18.0701756  50.5912978  42.6346903
  17.7055026  50.1449107  40.9509781  16.6831661  48.9795209  42.4218951
  16.0551661  48.0615209  41.5828951  16.4494398  47.9117413  40.5778012
  14.9441661  47.3425209  42.0078951  14.4599172  46.6266810  41.3436828
  14.4521661  47.5435209  43.2848951  13.3521661  46.8335209  43.7098951
  13.0124047  46.2330933  43.0423260  15.0571661  48.4485209  44.1368951
  14.6696879  48.6052121  45.1435773  16.1681661  49.1615209  43.7008951
  16.6511579  49.8779387  44.3653984  20.3411661  49.8035209  41.4518951
  20.1341661  50.8815209  40.8898951  21.5551661  49.4085209  41.8838951
  21.5849524  48.6305604  42.5273153  22.8121661  50.0545209  41.5208951
  22.6131174  51.0456300  41.1132414  23.7131661  50.2025209  42.7468951
  23.3068983  50.9838590  43.3892008  23.7262944  49.2572191  43.2894190
  25.0341661  50.5455209  42.3638951  25.5819035  50.6332847  43.1474008
  23.5441661  49.2705209  40.4358951  23.8681661  48.0945209  40.6238951
  23.8121661  50.0115209  39.2828951  23.4463367  50.9385227  39.1187737
  24.6211661  49.3925209  38.2388951  24.1227193  48.4965375  37.8689442
  24.8211661  50.3595209  37.0688951  23.9045380  50.4396825  36.4845440
  25.0994548  51.3442983  37.4442203  25.9061661  49.9405209  36.1128951
  27.1281661  50.5995209  36.0918951  27.2961808  51.4293785  36.7783406
  28.1321661  50.2125209  35.2088951  29.0871356  50.7379426  35.2007632
  27.9151661  49.1565209  34.3388951  28.6990447  48.8511181  33.6458126
  26.7031661  48.4895209  34.3498951  26.5305769  47.6584338  33.6660770
  25.7021661  48.8815209  35.2368951  24.7474157  48.3557593  35.2481320
  25.9721661  48.9525209  38.7898951  26.3881661  47.8095209  38.5868951
  26.6551661  49.8355209  39.4698951  26.2739736  50.7624216  39.5949818
  27.9791661  49.5525209  40.0148951  28.6713965  49.3296495  39.2029563
  28.5101661  50.7565209  40.7928951  28.5227848  51.6040256  40.1075661
  27.8067164  50.9543767  41.6016668  29.9021661  50.5515209  41.3708951
  30.4870838  49.9697576  40.6584882  30.3643804  51.5292271  41.5070960
  29.8571661  49.8215209  42.7058951  29.3809358  48.8509343  42.5670959
  30.8746024  49.6777491  43.0695605  29.1041661  50.5735209  43.7068951
  28.2912560  51.0767211  43.3812173  29.4131661  50.6355209  44.9978951
  30.4711661  49.9895209  45.4718951  31.0482918  49.4449888  44.8469865
  30.6943295  50.0454053  46.4553455  28.6601661  51.3505209  45.8198951
  27.8554661  51.8446780  45.4616121  28.8940772  51.3983503  46.8012700
  27.9471661  48.3205209  40.9138951  28.7231661  47.3825209  40.7178951
  26.9711661  48.3225209  41.9058951  26.3220371  49.0915879  41.9911402
  26.9041661  47.2475209  42.8918951  27.8883725  47.0900307  43.3330683
  25.9191661  47.6025209  44.0078951  26.0771558  48.6417872  44.2961037
  24.9044342  47.4813984  43.6287533  26.0851661  46.7285209  45.2358951
  27.2061661  46.3675209  45.6058951  24.9741661  46.3845209  45.8738951
  25.0281246  45.8032154  46.6980748  24.0794316  46.7054975  45.5325376
  26.5181661  45.9205209  42.2458951  27.0171661  44.8645209  42.6418951
  25.5881661  45.9485209  41.2558951  25.1252177  46.8154427  41.0230331
  25.1961661  44.7405209  40.5378951  24.8981116  43.9710863  41.2500980
  24.0161661  45.0145209  39.5868951  24.3285292  45.7502025  38.8457458
  23.5731661  43.7375209  38.8798951  23.2601969  43.0014781  39.6204293
  22.7388190  43.9605141  38.2148853  24.4034797  43.3367660  38.2984525
  22.9151661  45.5375209  40.3408951  22.1770337  45.7098565  39.7517760
  26.3721661  44.1765209  39.7448951  26.6341661  42.9725209  39.7828951
  27.1171661  45.0695209  39.0478951  26.8721380  46.0490902  39.0254331
  28.2681661  44.6265209  38.2688951  27.9769851  43.8027679  37.6171714
  28.8041661  45.7695209  37.4028951  27.9555464  46.0391655  36.7742175
  29.0495091  46.6046707  38.0589680  30.0091661  45.4445209  36.5198951
  30.8704852  45.2387023  37.1554021  29.7171661  44.2265209  35.6498951
  28.8561947  44.4317645  35.0137331  30.5845703  44.0078775  35.0270742
  29.5017301  43.3681232  36.2861663  30.3801661  46.6465209  35.6578951
  30.6298418  47.4913724  36.2997577  31.2398366  46.3968261  35.0360266
  29.5363785  46.9117464  35.0208890  29.3721661  44.1025209  39.1808951
  30.0211661  43.1025209  38.8678951  29.6251661  44.7545209  40.3148951
  29.1392077  45.6045718  40.5625991  30.6721661  44.2705209  41.2088951
  31.6127748  44.1878808  40.6643538  30.8681661  45.2365209  42.3798951
  30.9730692  46.2370981  41.9604431  29.9667091  45.1919885  42.9910351
  32.0811661  44.9185209  43.2418951  31.8601027  44.0058859  43.7953651
  32.9245957  44.7426329  42.5742207  32.4311661  46.0305209  44.2178951
  33.3401661  45.8385209  45.0568951  31.7901661  47.1025209  44.1448951
  30.3491661  42.8735209  41.7308951  31.2481661  42.0515209  41.9198951
  29.0031661  42.6935209  41.9658951  28.2866540  43.4052945  41.9565100
  28.6101661  41.3235209  42.2538951  27.8813525  41.0156461  41.5041331
  29.4967207  40.6939382  42.1780934  28.0011661  41.1545209  43.6328951
  28.0041661  40.0535209  44.1888951  27.5261661  42.2765209  44.2328951
  27.5995810  43.1826229  43.7927942  26.9371661  42.2005209  45.5648951
  27.1934626  41.2472033  46.0270605  27.4641661  43.3325209  46.4528951
  27.3962571  44.2848599  45.9270261  26.8856417  43.3852866  47.3751886
  28.9041661  43.1655209  46.8568951  29.2651661  42.2525209  47.8378951
  28.4897514  41.6538940  48.3158884  30.5971661  42.0955209  48.2138951
  30.8681439  41.3745906  48.9852129  31.5791661  42.8595209  47.6038951
  32.6229801  42.7425490  47.8952195  31.2321661  43.7735209  46.6218951
  32.0022529  44.3746744  46.1384894  29.8981661  43.9235209  46.2528951
  29.6237069  44.6428125  45.4812788  25.4151661  42.2635209  45.4878951
  24.7301661  42.0685209  46.4948951  24.9041661  42.5305209  44.2978951
  25.5161614  42.7860064  43.5361286  23.4631661  42.5255209  44.0568951
  22.9514927  42.2801103  44.9875202  22.9961661  43.9025209  43.5918951
  23.4930456  44.1583947  42.6560856  21.9172383  43.8878860  43.4376200
  23.2442959  44.6458792  44.3494896  23.0821661  41.4645209  43.0318951
  23.8821661  41.1235209  42.1548951  21.8871661  40.9105209  43.1868951
  21.3256523  41.1824603  43.9811561  21.3651661  39.8835209  42.2888951
  22.0721091  39.0564785  42.2230790  20.0301661  39.3455209  42.8088951
  20.1855844  39.0086997  43.8338321  19.3148217  40.1679149  42.8017821
  19.4891661  38.1975209  41.9758951  19.3671661  38.3445209  40.7398951
  19.1811661  37.1365209  42.5608951  21.1961661  40.4295209  40.8728951
  20.4871661  41.4165209  40.6618951  21.9091661  39.8545209  39.8898951
  22.8211661  38.5745209  40.0068951  22.2654152  37.7382113  40.4309556
  23.6980256  38.7766019  40.6220210  23.1721661  38.3605209  38.5618951
  22.4904694  37.6145986  38.1532529  24.1939563  37.9843002  38.5118519
  23.0481661  39.6655209  37.8428951  22.8135246  39.4807088  36.7946171
  23.9450392  40.2812323  37.9108499  21.8751661  40.3755209  38.5208951
  22.0131396  41.4556313  38.5701212  20.5621661  40.0625209  37.8038951
  20.4531661  40.2695209  36.5928951  19.5141661  39.7185209  38.5638951
  19.6501170  39.5488920  39.5502230  18.1801661  39.5235209  38.0058951
  18.1950426  39.7273250  36.9352216  17.7121661  38.0835209  38.2228951
  17.7684062  37.8828234  39.2927815  16.6733132  38.0284734  37.8975424
  18.5351661  37.0485209  37.4688951  18.4476004  37.2444684  36.4002335
  19.5781184  37.1438957  37.7709818  18.0801661  35.6275209  37.7398951
  16.8801661  35.3435209  37.7878951  19.0391661  34.7225209  37.9198951
  18.7932111  33.7603355  38.1037612  20.0085278  35.0020328  37.8718074
  17.1801661  40.4985209  38.6198951  16.2111661  40.8955209  37.9688951
  17.5281661  40.8635209  39.8348951  18.3639300  40.5869103  40.3299555
  16.5641661  41.7145209  40.5258951  15.7363034  41.9487543  39.8566588
  16.0021661  41.0195209  41.7788951  15.2539855  41.6695834  42.2324861
  15.3641661  39.6805209  41.4248951  16.1119033  39.0297093  40.9716481
  14.9757798  39.2121247  42.3292513  14.5481202  39.8412410  40.7203820
  17.0651661  40.7965209  42.7138951  16.7171954  40.3630079  43.4965720
  17.2031661  43.0435209  40.9208951  16.5021661  44.0005209  41.2558951
  18.5871661  43.0635209  41.0338951  19.0817994  42.2010621  40.8561255
  19.3601661  44.2335209  41.4428951  20.4177705  44.0407526  41.2628602
  18.9421661  45.4565209  40.6308951  17.8875427  45.6676363  40.8078123
  19.5400423  46.3160989  40.9338307  19.0999882  45.2604312  39.5703574
  19.1911661  44.5075209  42.9358951  19.3071661  45.6515209  43.3798951
  18.7331661  43.5045209  43.6188951  18.4086957  42.6629195  43.1644446
  18.6261661  43.5915209  45.0698951  18.5920910  44.6302266  45.3985723
  17.3771661  42.8455209  45.5908951  17.4320698  41.8032164  45.2767497
  17.3041661  42.9145209  47.1178951  17.2487681  43.9565710  47.4327972
  16.4176308  42.3832409  47.4641571  18.1940294  42.4529697  47.5459289
  16.1081661  43.4225209  44.9538951  16.2078535  43.3059406  43.8747416
  15.2691572  42.8232994  45.3075856  15.8601661  44.8875209  45.2848951
  16.6985997  45.4874691  44.9310713  14.9441651  45.2207542  44.7970457
  15.7599056  45.0048282  46.3639163  19.8881661  43.0225209  45.7138951
  20.3211661  41.9165209  45.3798951  20.4691661  43.8175209  46.6438951
  20.0662332  44.7104367  46.8897524  21.7231661  43.4255209  47.2798951
  22.4737809  43.2169292  46.5175525  22.2411661  44.5465209  48.1818951
  23.2642120  44.3153806  48.4786281  22.2280793  45.4824074  47.6232849
  21.4321661  44.6755209  49.3378951  21.7733295  45.3829902  49.8898866
  21.5541661  42.1455209  48.0918951  20.5561661  41.9775209  48.7938951
  22.5171661  41.2845209  47.9368951  23.1968320  41.4882630  47.2181164
  22.6441661  40.0315209  48.6738951  22.2298846  40.1487256  49.6752607
  21.8871661  38.9105209  47.9598951  20.8645981  39.2410375  47.7776516
  22.3775746  38.7064358  47.0080816  21.8451661  37.6285209  48.7678951
  22.5751661  37.4735209  49.7508951  20.9901661  36.6975209  48.3588951
  20.9213439  35.8238661  48.8609813  20.4129298  36.8676917  47.5477595
  24.1061661  39.6415209  48.8718951  24.7311661  39.0825209  47.9698951
  24.6141661  39.8515209  50.0938951  24.0335334  40.1313083  50.8715094
  26.0501661  39.7315209  50.3118951  26.6063410  40.0420507  49.4273953
  26.5101661  40.5665209  51.5288951  27.5676103  40.3740570  51.7101958
  26.3011661  42.0605209  51.2678951  25.2438177  42.2538471  51.0869536
  26.6309596  42.6311741  52.1360494  26.8797057  42.3617414  50.3945926
  25.7641661  40.1205209  52.7918951  24.7186449  40.4015722  52.6654184
  25.8438575  39.0348566  52.8474084  26.3031661  40.7355209  54.0778951
  26.2233714  41.8212250  54.0233116  25.7236008  40.3713191  54.9261641
  27.3485853  40.4545110  54.2053004  26.4221661  38.2635209  50.5058951
  27.6051661  37.9145209  50.5398951  25.4511661  37.4405209  50.5788951
  24.4948009  37.7652584  50.5756729  25.6951661  36.0085209  50.7198951
  26.6075116  35.8443091  51.2932707  24.5311661  35.3355209  51.4498951
  23.6264100  35.4538914  50.8536536  24.7539740  34.2747051  51.5644656
  24.3341661  35.9175209  52.7278951  23.6008450  35.4817929  53.1683279
  25.9051661  35.3465209  49.3628951  26.3041661  34.1825209  49.2888951
  25.5871661  36.0965209  48.3168951  25.1760017  37.0091675  48.4515034
  25.7661661  35.6125209  46.9508951  26.2024487  34.6137824  46.9675723
  24.4221661  35.5465209  46.2248951  23.9933520  36.5484037  46.2460737
  24.6254956  35.2606385  45.1928930  23.4381661  34.5605209  46.8398951
  23.4618871  34.6737775  47.9237360  22.4383153  34.7919923  46.4727148
  23.7591661  33.1175209  46.4958951  24.1581661  32.8095209  45.3678951
  23.5881661  32.2255209  47.4648951  23.7868600  31.2507199  47.2905816
  23.2602186  32.5260759  48.3716577  26.7371661  36.4995209  46.1768951
  26.8141661  37.7055209  46.4198951  27.4451661  35.8505209  45.2788951
  27.3964846  34.8458139  45.1878283  28.3691661  36.5795209  44.4158951
  28.3207461  37.6449212  44.6410105  29.8031661  36.0985209  44.6358951
  29.8427055  35.0217716  44.4711325  30.4561962  36.5991650  43.9210474
  30.2341661  36.3905209  45.9538951  31.1352779  36.0811718  46.0717959
  27.9911661  36.4235209  42.9458951  27.8721661  35.3045209  42.4448951
  27.7121661  37.5485209  42.2878951  27.7268068  38.4405879  42.7612886
  27.3791661  37.5245209  40.8718951  27.3052759  36.4830664  40.5588266
  26.4126349  38.0116159  40.7428405  28.4061661  38.2285209  40.0058951
  29.3751661  38.7925209  40.5178951  28.3291661  38.1455209  38.7978951
  27.6287570  37.4790986  38.5056491  29.1101661  38.8245209  37.7688951
  29.0589196  38.2637132  36.8356386  28.5621661  40.2335209  37.5238951
  28.6230583  40.7106232  38.5020387  29.2316015  40.7418673  36.8299640
  27.1261661  40.3205209  37.0028951  26.4587426  39.8322570  37.7129972
  26.7121661  41.7795209  36.8368951  27.3788938  42.2683596  36.1265362
  25.6884529  41.8272700  36.4656378  26.7729514  42.2867930  37.7997454
  26.9881661  39.5665209  35.6858951  27.2458926  38.5184023  35.8379605
  25.9602168  39.6395507  35.3308062  27.6595371  40.0015028  34.9455230
  30.5801661  38.9005209  38.1668951  31.2411661  37.8695209  38.3158951
  31.1681661  40.0825209  38.4558951  30.4891661  40.8915209  38.4438951
  32.5841661  40.2475209  38.7578951  33.1161661  39.9985209  37.9388951
  32.8921661  41.7045209  39.1048951  32.8751661  42.2525209  38.2608951
  32.1781661  42.0505209  39.7228951  34.2201661  41.8985209  39.7648951
  34.3831661  41.8565209  41.1338951  33.6401661  41.6975209  41.7978951
  35.6571661  42.0575209  41.4258951  35.9941661  42.0635209  42.4628951
  36.3251661  42.2245209  40.2968951  35.4491661  42.1295209  39.2448951
  35.8101661  42.2395209  38.2218951  33.0151661  39.3355209  39.9008951
  33.9911661  38.5915209  39.7738951  32.2691661  39.3045209  41.0218951
  31.9618636  38.8179413  40.1918923  32.6251661  38.5135209  42.1958951
  33.6639350  38.7012855  42.4675621  31.7341661  38.8885209  43.3818951
  30.7034570  38.9684326  43.0364215  31.8053657  38.1008787  44.1319953
  32.1341661  40.2035209  44.0208951  33.1481661  40.8035209  43.6548951
  31.3381661  40.6645209  44.9798951  31.5585079  41.5367286  45.4390281
  30.5164755  40.1405816  45.2452493  32.5311661  37.0185209  41.9148951
  33.3301661  36.2345209  42.4288951  31.5961661  36.6805209  41.0598951
  30.9729417  37.3595771  40.6468898  31.4011661  35.2705209  40.7298951
  31.1946888  34.7191140  41.6471828  30.2141661  35.1045209  39.7828951
  30.4099909  35.6436744  38.8560368  30.0688467  34.0467512  39.5635652
  29.3154459  35.5045163  40.2523681  32.6591661  34.6725209  40.1088951
  33.0631661  33.5605209  40.4558951  33.3181661  35.3995209  39.2068951
  32.9701536  36.3035445  38.9210141  34.5331661  34.8935209  38.5738951
  34.3500978  33.8996557  38.1654626  34.9691661  35.8175209  37.4348951
  34.0790325  35.8981428  36.8109869  35.2035878  36.7932783  37.8603880
  36.1461661  35.3365209  36.5838951  36.8107231  34.7347692  37.2038626
  35.6471661  34.4985209  35.4128951  34.9828685  35.0997791  34.7921729
  36.4963070  34.1638167  34.8170481  35.1049107  33.6317455  35.7907308
  36.9671661  36.5225209  36.0888951  37.3523877  37.0800362  36.9426401
  37.8000984  36.1618835  35.4853508  36.3366553  37.1745409  35.4843912
  35.6591661  34.7595209  39.5928951  36.3891661  33.7645209  39.5908951
  35.7951661  35.7535209  40.4538951  35.1651661  36.5465209  40.3358951
  36.8161661  35.6545209  41.4918951  37.7191661  35.6125209  41.0468951
  36.7771661  36.8855209  42.3978951  35.8181661  37.1375209  42.5678951
  37.2071661  36.6565209  43.2778951  37.4811661  38.0755209  41.8258951
  38.8461661  38.1105209  41.6338951  39.4821661  37.3575209  41.8588951
  39.1801661  39.2805209  41.1148951  40.2221661  39.5075209  40.8888951
  38.0841661  40.0015209  40.9628951  37.0071661  39.2695209  41.3988951
  36.0051661  39.6955209  41.3548951  36.6351661  34.3885209  42.3228951
  37.5861661  33.6275209  42.5138951  35.3871661  34.1805209  42.7488951
  35.5824004  33.9626483  41.7821922  35.0881661  33.0805209  43.6588951
  35.8322440  33.0123388  44.4524936  33.6821661  33.2295209  44.2828951
  32.9512339  33.3402664  43.4819120  33.3311661  32.0035209  45.1268951
  34.0614424  31.8923805  45.9284218  32.3373869  32.1299101  45.5564639
  33.3441332  31.1131763  44.4982319  33.6021661  34.5135209  45.1168951
  33.7251172  35.3517656  44.4310892  32.6064898  34.5494697  45.5589763
  34.6491661  34.6015209  46.2178951  35.6451723  34.5660989  45.7765144
  34.5267237  35.5377763  46.7624435  34.5265461  33.7638011  46.9044005
  35.1971661  31.7515209  42.9148951  35.7011661  30.7655209  43.4638951
  34.7791661  31.7465209  41.6618951  34.3840588  32.5898147  41.2709410
  34.8211661  30.5505209  40.8268951  34.2404146  29.7547491  41.2933434
  34.2321661  30.8395209  39.4428951  33.2023446  31.1652958  39.5893106
  34.8117408  31.6534600  39.0073535  34.2561661  29.6505209  38.5118951
  35.3081661  29.4655209  37.6168951  36.1192961  30.1933544  37.5962557
  35.3331661  28.3705209  36.7568951  36.1596403  28.2342854  36.0594124
  34.3001661  27.4545209  36.7908951  34.3211661  26.3695209  35.9418951
  35.0956465  26.3518217  35.3749149  33.2461661  27.6165209  37.6708951
  32.4320314  26.8922127  37.6966374  33.2291661  28.7125209  38.5268951
  32.4020467  28.8468284  39.2239855  36.2471661  30.0335209  40.6858951
  36.4771661  28.8225209  40.6768951  37.1841661  30.9075209  40.5928951
  36.9501297  31.8882440  40.6521276  38.5771661  30.5415209  40.3518951
  38.6308123  29.8033587  39.5516840  39.3921661  31.7675209  39.9408951
  39.2269776  32.5345470  40.6975211  40.4420122  31.4744171  39.9445603
  39.0251661  32.3185209  38.5728951  37.9746682  32.6086286  38.5927041
  39.6408411  33.1977133  38.3829814  39.2881661  31.0965209  37.2298951
  38.4521661  31.9425209  35.8588951  38.9306002  32.9053583  35.6796076
  38.5190466  31.3310007  34.9590781  37.4040763  32.0999907  36.1134776
  39.1911661  29.8955209  41.5888951  40.1511661  29.1305209  41.4838951
  38.5451661  30.1525209  42.8128951  37.7122186  30.7203334  42.8752381
  39.1291661  29.6445209  44.0478951  38.6040935  30.0668774  44.9046406
  39.0171661  28.1195209  44.1088951  38.0823074  27.8194749  43.6354917
  39.8554562  27.6854583  43.5639553  39.0341661  27.5875209  45.5268951
  39.3231661  28.3235209  46.4758951  38.7261661  26.3065209  45.6848951
  38.7225870  25.9015547  46.6101461  38.4967296  25.7423595  44.8791771
  40.5861661  30.0745209  44.1988951  41.0591661  30.9415209  43.4618951
  41.2471661  29.7935209  45.2328951  40.7396978  29.3411244  45.9798306
  42.6631661  30.0675209  45.4278951  42.9649521  29.6329351  46.3808692
  43.2160224  29.5889111  44.6195747  42.9861661  31.5495209  45.4368951
  42.2741661  32.3415209  46.0558951  44.0781661  31.9415209  44.7048951
  44.5587385  31.2504899  44.1466607  44.6091661  33.2995209  44.7318951
  44.8688223  33.5733291  45.7544932  45.8651661  33.4035209  43.8638951
  45.6206716  33.0864123  42.8501083  46.1987986  34.4410983  43.8489725
  46.8991661  32.5825209  44.3788951  47.6772976  32.6609538  43.8221550
  43.5691661  34.3095209  44.2588951  43.4231661  35.3815209  44.8488951
  42.7131661  33.9965209  43.1778951  42.8356213  33.0775126  42.7772359
  41.7251661  34.8875209  42.5768951  42.1762285  35.8610554  42.3848725
  41.2171661  34.3145209  41.2528951  41.1642947  33.2318900  41.3678478
  40.2149606  34.7116322  41.0916913  42.0941661  34.6545209  40.0598951
  43.1048513  34.3043328  40.2696201  41.7019345  34.1299900  39.1886181
  42.1401661  36.4545209  39.7098951  40.4711661  36.6925209  39.0398951
  39.7337849  36.4072281  39.7902123  40.3317457  37.7404213  38.7742498
  40.3437469  36.0731139  38.1520885  40.5551661  35.1235209  43.5268951
  39.8201661  36.1025209  43.3828951  40.4061661  34.3165209  44.5938951
  41.0736599  33.5819138  44.7807204  39.2541661  34.4475209  45.4818951
  38.4317255  34.9265532  44.9506524  38.7891661  33.0725209  45.9648951
  37.9049233  33.1994609  46.5894751  38.5364438  32.4619835  45.0980182
  39.8071661  32.4315209  46.7128951  39.4958308  31.5720291  47.0060569
  39.5801661  35.3325209  46.6818951  38.6901661  35.6845209  47.4598951
  40.8391661  35.6715209  46.7988951  41.5358477  35.2832435  46.1792382
  41.2801661  36.5745209  47.8558951  40.5531640  36.5746344  48.6680324
  42.6341661  36.1295209  48.4118951  43.3479636  36.1583715  47.5886333
  42.9268123  36.8545076  49.1714033  42.6191661  34.7335209  49.0218951
  41.9188174  34.7266544  49.8570989  42.2865682  34.0245914  48.2636738
  43.9811661  34.2985209  49.5278951  44.7471661  35.1095209  50.0638951
  44.2961661  33.0195209  49.3628951  45.1913953  32.6778349  49.6821394
  43.6391456  32.3940027  48.9188767  41.3711661  38.0105209  47.3488951
  42.2001661  38.3215209  46.4908951  40.5141661  38.9175209  47.8978951
  39.9100213  38.6334719  48.6558030  40.3961661  40.2825209  47.3928951
  40.0343992  40.2984634  46.3648048  39.4431661  41.1305209  48.2648951
  39.7632304  41.0643608  49.3047417  39.4611661  42.5915209  47.8188951
  39.1407526  42.6585367  46.7792101  38.7836475  43.1715938  48.4454607
  40.4719623  42.9883506  47.9133360  38.0251661  40.5675209  48.2058951
  38.0252547  39.5418868  48.5749164  37.3660776  41.1758902  48.8252405
  37.6704114  40.5822833  47.1753457  41.7751661  40.9315209  47.3338951
  42.1831661  41.4445209  46.2898951  42.5561661  40.8905209  48.4448951
  42.2290356  40.3883058  49.2578311  43.8331661  41.5935209  48.5328951
  43.7085913  42.6261166  48.2068175  44.3481661  41.5945209  49.9728951
  44.4557968  40.5538680  50.2787649  45.3271225  42.0737892  49.9660900
  43.4351661  42.3195209  50.9528951  44.0496786  42.7884100  51.7214121
  42.8833913  43.0875701  50.4109107  42.4411661  41.3925209  51.6258951
  42.2451661  40.2515209  51.1958951  41.8061661  41.8765209  52.6898951
  41.1331311  41.3022106  53.1770222  41.9999931  42.8160858  53.0057279
  44.8701661  40.9685209  47.6058951  45.6501661  41.6795209  46.9668951
  44.8021661  39.6525209  47.4058951  44.0199619  39.1076291  47.7395847
  45.8681661  38.9645209  46.6928951  46.7260651  39.6346804  46.6381697
  46.1379230  38.0756565  47.2632025  45.4761661  38.5495209  45.2888951
  46.2711661  37.9405209  44.5708951  44.3021661  38.8865209  44.8368951
  43.7523458  39.5419470  45.3737504  43.7211661  38.3305209  43.6188951
  43.7184671  37.2419222  43.6740732  42.2811661  38.8145209  43.4448951
  41.8866485  38.4150082  42.5106336  41.6833529  38.4456693  44.2783625
  42.2251661  40.2305209  43.4138951  41.3140572  40.5123953  43.3042267
  44.5451661  38.7075209  42.3928951  44.6151661  37.9445209  41.4278951
  45.2061661  39.8515209  42.4608951  45.1792116  40.4151207  43.2985872
  45.9441661  40.3605209  41.3068951  45.3187365  40.2680360  40.4189855
  46.2931661  41.8345209  41.5068951  46.9267940  41.9422013  42.3872477
  46.8243230  42.2048837  40.6300804  45.3777121  42.4095217  41.6462406
  47.2101661  39.5445209  41.0618951  47.8891661  39.7305209  40.0508951
  47.5461661  38.6365209  42.0028951  47.0397721  38.5911534  42.8755956
  48.6871661  37.7455209  41.8178951  49.5722460  38.3278704  41.5617663
  48.9711661  36.9635209  43.1018951  48.0214084  36.6869069  43.5596549
  49.5275961  36.0614681  42.8473633  49.7781661  37.7635209  44.1058951
  51.0001661  37.8775209  43.9868951  49.1001661  38.3215209  45.1018951
  49.5885951  38.8654141  45.7988292  48.0991333  38.1995056  45.1579878
  48.4651661  36.7865209  40.6508951  49.4211661  36.3665209  39.9968951
  47.2221661  36.4225209  40.4208951  46.4955269  36.7476007  41.0425203
  46.8511661  35.5225209  39.3338951  47.6319406  34.7754123  39.1913500
  45.5391661  34.8035209  39.6548951  45.5772797  34.4885948  40.6977125
  44.7298578  35.5214881  39.5220670  45.2931661  33.5955209  38.7708951
  44.8771661  32.5455209  39.3028951  45.5091661  33.6855209  37.5408951
  46.7251661  36.2815209  38.0148951  46.0081661  37.2815209  37.9328951
  47.3961661  35.7965209  36.8888951  48.2091661  34.4795209  36.8148951
  47.6597777  33.6448614  37.2503444  49.1746436  34.5768441  37.3113632
  48.3411661  34.3675209  35.3228951  47.5023511  33.7796903  34.9501437
  49.2741988  33.8494235  35.1012503  48.3441661  35.7445209  34.7408951
  47.9548567  35.7101466  33.7233709  49.3318042  36.2056584  34.7361012
  47.3961661  36.5495209  35.6338951  47.7717268  37.5506906  35.8453467
  46.0101661  36.6495209  35.0048951  45.7751661  37.5095209  34.1508951
  45.0961661  35.8245209  35.4338951  45.3244527  35.1019108  36.1015920
  43.7321661  35.8875209  34.9228951  43.7245969  35.9286010  33.8336962
  42.8921661  34.6785209  35.3988951  43.0890378  34.5061920  36.4570277
  41.3981661  34.9455209  35.1948951  41.2004308  35.1174961  34.1368658
  40.8246378  34.0835579  35.5357553  41.1044806  35.8258316  35.7666478
  43.3271661  33.4055209  34.6638951  43.1122251  33.5545715  33.6057434
  44.4032081  33.3034786  34.8046806  42.6301661  32.1425209  35.1498951
  41.5540520  32.2436371  35.0089922  42.9916107  31.2857158  34.5812633
  42.8450333  31.9925455  36.2079307  43.0761661  37.1935209  35.3658951
  42.1381661  37.6735209  34.7228951  43.5951661  37.8365209  36.3928951
  44.3957604  37.4017532  36.8289286  43.0841661  39.0755209  36.9658951
  42.0834022  38.9116965  37.3655603  43.9921661  39.5575209  38.1018951
  44.0393632  38.8075624  38.8914734  44.9956770  39.7467116  37.7207484
  43.5291661  40.8355209  38.7488951  43.9451661  42.0685209  38.2598951
  44.6137283  42.1035034  37.3997203  43.5161661  43.2525209  38.8578951
  43.8489223  44.2141590  38.4672211  42.6651661  43.2055209  39.9508951
  42.3271496  44.1286713  40.4216798  42.2441661  41.9815209  40.4448951
  41.5756538  41.9425009  41.3049351  42.6741661  40.8025209  39.8438951
  42.3403473  39.8399970  40.2314677  42.9621661  40.1555209  35.8998951
  41.9201661  40.8065209  35.7828951  44.0261661  40.2995209  35.0738951
  44.8328577  39.6927117  35.1075189  44.0351661  41.4105209  34.1278951
  43.6989723  42.3364355  34.5945374  45.4451661  41.6395209  33.5348951
  45.3751332  42.3729382  32.7315933  46.4051661  42.1495209  34.6068951
  46.4760796  41.4163774  35.4103706  47.3911473  42.3039955  34.1686267
  46.0346351  43.0928226  35.0081312  45.9731661  40.3505209  32.9078951
  45.3005764  40.0310287  32.1118739  46.9662543  40.5270895  32.4947375
  46.0299592  39.5723579  33.6690375  43.0311661  41.1455209  33.0088951
  42.3971661  42.0755209  32.5018951  42.8191661  39.8775209  32.6158951
  43.3768895  39.1309129  33.0052798  41.8281661  39.5425209  31.5988951
  41.9751907  40.1689903  30.7191116  41.9631661  38.0755209  31.1828951
  41.7786183  37.5257832  32.1058414  41.1742610  37.8533212  30.4643159
  43.3141661  37.6565209  30.6018951  44.0849980  37.7916060  31.3606250
  43.2761661  36.1935209  30.1708951  42.5058309  36.0577351  29.4117873
  44.2449349  35.9101392  29.7594554  43.0505437  35.5659539  31.0330752
  43.6941661  38.5555209  29.4288951  43.7608320  39.5889028  29.7691552
  44.6582864  38.2426057  29.0280742  42.9352028  38.4781312  28.6503809
  40.4161661  39.8105209  32.1078951  39.6001661  40.4085209  31.4018951
  40.2051661  39.3895209  33.3368951  40.9509934  38.9234901  33.8335401
  38.9111661  39.5205209  33.9968951  38.1358080  39.0611228  33.3838109
  38.9321661  38.8265209  35.3588951  38.9656887  37.7448180  35.2289176
  39.8008967  39.1501532  35.9321920  37.7301661  39.1195209  36.2008951
  36.4451661  38.8475209  35.7818951  36.2024382  38.4370412  34.8915641
  35.5951661  39.2095209  36.7288951  34.5223346  39.0759570  36.5899988
  36.2831661  39.7045209  37.7428951  37.6211661  39.6605209  37.4368951
  38.3563079  40.0285440  38.1525954  38.5231661  40.9865209  34.1608951
  37.4081661  41.3815209  33.8088951  39.3851661  41.7785209  34.6188951
  40.3521661  41.3845209  34.7648951  39.0781661  43.1695209  34.9338951
  38.1761661  43.2025209  35.3818951  40.1181661  43.7435209  35.8998951
  41.0221661  43.3735209  35.6618951  40.1431661  44.7425209  35.7958951
  39.8401661  43.4255209  37.3348951  40.3851661  42.3335209  37.9738951
  41.0001661  41.6675209  37.5568951  39.9641661  42.3095209  39.2278951
  40.2061661  41.6245209  39.9088951  39.1671661  43.3445209  39.4228951
  39.0721661  44.0585209  38.2528951  38.5371661  44.8865209  38.1088951
  39.0141661  44.0195209  33.6688951  38.3161661  45.0355209  33.6328951
  39.7521661  43.5545209  32.5498951  38.9841549  43.0247200  32.9366366
  39.5651661  44.1985209  31.2518951  39.7135143  45.2724781  31.3646245
  40.5831661  43.6685209  30.2458951  40.4412341  42.5956988  30.1154805
  40.4449790  44.1717575  29.2889429  41.5913710  43.8590430  30.6137585
  38.1471661  43.9845209  30.7328951  37.5461661  44.8955209  30.1588951
  37.5791661  42.8135209  30.9928951  38.0771396  42.0744445  31.4681717
  36.2161661  42.5515209  30.5438951  36.0882894  42.9127658  29.5234791
  35.9201661  41.0495209  30.5718951  36.7221539  40.4992253  30.0798690
  35.8230396  40.7058347  31.6017234  34.6431661  40.6705209  29.8688951
  33.6731661  39.9175209  30.5198951  33.8471175  39.6027346  31.5488511
  32.4901661  39.5645209  29.8738951  31.7353490  38.9737581  30.3928854
  32.2751661  39.9685209  28.5638951  31.3520190  39.6949874  28.0529366
  33.2341661  40.7195209  27.9058951  33.0661102  41.0380318  26.8771054
  34.4121661  41.0675209  28.5578951  35.1675047  41.6586628  28.0400969
  35.2101661  43.2995209  31.4118951  34.2031661  43.8025209  30.9088951
  35.4341661  43.4045209  32.7048951  36.1943119  42.8837625  33.1185235
  34.5931661  44.2125209  33.5798951  33.5512432  43.8953543  33.5362923
  35.0701661  44.1415209  35.0488951  36.1374548  44.3600722  35.0839602
  34.3151661  45.1515209  35.9118951  33.2477779  44.9333152  35.8776966
  34.6663449  45.0846668  36.9416060  34.4920409  46.1580759  35.5328646
  34.8911661  42.7265209  35.5978951  35.4763881  42.0276322  35.0002566
  35.2312558  42.6920878  36.6329086  33.8380055  42.4492041  35.5526298
  34.5911661  45.6635209  33.0998951  33.5341661  46.2965209  33.0248951
  35.7571661  46.2075209  32.7548951  36.6029027  45.6751838  32.9013403
  35.8751661  47.5615209  32.2218951  35.4541396  48.2750547  32.9302068
  37.3431661  47.9175209  31.9838951  37.8677643  47.7975156  32.9317847
  37.7452125  47.2137543  31.2550801  37.5341661  49.3365209  31.4758951
  37.1991661  50.2955209  32.2028951  38.0201661  49.4965209  30.3348951
  35.0821661  47.7105209  30.9258951  34.4551661  48.7465209  30.6918951
  35.1261661  46.6475209  30.0928951  35.6818780  45.8262150  30.2845727
  34.3831661  46.7025209  28.8388951  34.6717660  47.5916531  28.2783120
  34.6781661  45.4695209  27.9848951  34.3626987  45.6670917  26.9604219
  35.7508319  45.2767923  28.0034403  33.9861661  44.3365209  28.4818951
  34.1843452  43.5743149  27.9329263  32.8821661  46.8105209  29.0888951
  32.1691661  47.4745209  28.3358951  32.3481661  46.1585209  30.0688951
  32.9405059  45.5271578  30.5891004  30.9371661  46.2405209  30.4318951
  30.2997280  46.1086099  29.5576118  30.5661661  45.1895209  31.5028951
  31.2677665  45.2691636  32.3332651  29.1421661  45.4185209  32.0148951
  28.4399036  45.3385692  31.1851146  28.9011320  44.6680859  32.7677899
  29.0698511  46.4122329  32.4569428  30.7241661  43.7735209  30.9388951
  29.9474095  43.6381530  30.1862828  31.7033671  43.7240093  30.4626457
  30.6131661  42.6735209  31.9858951  29.6339873  42.7221071  32.4622858
  30.7359950  41.7019408  31.5073094  31.3899442  42.8079651  32.7386504
  30.6141661  47.6455209  30.9338951  29.5741661  48.2125209  30.5868951
  31.5391661  48.2055209  31.7538951  32.3056336  47.6514501  32.1083420
  31.4321661  49.5935209  32.1858951  30.5142014  49.7321096  32.7570633
  32.6221661  49.9745209  33.0718951  32.6279342  49.3661742  33.9763177
  33.5552634  49.8256098  32.5285214  32.6091661  51.4125209  33.5198951
  33.7941661  52.1245209  33.6518951  34.7387858  51.6297306  33.4261161
  33.7861661  53.4545209  34.0668951  34.7222137  54.0036653  34.1686601
  32.5811661  54.0795209  34.3508951  32.5688674  55.1195635  34.6768708
  31.3921661  53.3805209  34.2198951  30.4438340  53.8707300  34.4400346
  31.4091661  52.0515209  33.8068951  30.4742878  51.5003228  33.7054895
  31.3541661  50.5295209  30.9838951  30.4881661  51.4035209  30.9258951
  32.2261661  50.3025209  30.0098951  32.9390573  49.5949447  30.1158258
  32.2211661  51.1025209  28.7888951  32.3249000  52.1579606  29.0406602
  33.3811661  50.7015209  27.8748951  34.3034670  50.9917809  28.3780944
  33.3501767  49.6168844  27.7714380  33.3321661  51.3435209  26.4968951
  34.1537675  50.9288058  25.9128716  32.3838192  51.0679216  26.0356118
  33.4541661  52.8595209  26.5378951  33.1201661  53.5225209  25.5298951
  33.8901661  53.3865209  27.5858951  30.8951661  50.9655209  28.0448951
  30.3521661  51.9535209  27.5498951  30.3761661  49.8225209  27.9798951
  30.8768238  49.0252629  28.3457104  29.0851661  49.5945209  27.3408951
  29.1147482  49.9525375  26.3117944  28.7471661  48.1015209  27.3298951
  29.6619604  47.5653232  27.0774218  28.4364411  47.8334677  28.3396958
  27.6511661  47.7245209  26.3458951  26.7230971  48.1965417  26.6683623
  27.9280418  48.1032361  25.3620167  27.4541661  46.2165209  26.2718951
  28.1918461  45.7916854  25.5911293  27.5882476  45.7883836  27.2652833
  26.1191661  45.8715209  25.7898951  25.5467462  46.6318843  25.4518384
  25.6161661  44.6395209  25.7678951  26.3321661  43.6075209  26.2018951
  27.2674976  43.7574478  26.5522905  25.9377129  42.6780060  26.1793480
  24.3901661  44.4395209  25.3088951  23.8440492  45.2222064  24.9783504
  24.0069064  43.5052255  25.2914939  27.9801661  50.3745209  28.0428951
  27.1131661  50.9605209  27.3888951  28.0041661  50.3505209  29.3728951
  28.6772368  49.7854814  29.8706958  27.0251661  51.1045209  30.1488951
  26.0175853  50.8022296  29.8634131  27.2081661  50.8445209  31.6478951
  27.1620992  49.7738205  31.8468363  28.1698556  51.2344586  31.9813646
  26.1641661  51.4855209  32.5088951  24.9771661  50.9375209  32.9108951
  24.7640634  49.9238204  32.5716339  24.2821661  51.8305209  33.6918951
  23.3773637  51.6675366  34.1100676  25.0161661  52.9805209  33.8078951
  24.7331661  54.1655209  34.4918951  23.7913542  54.2398497  35.0355532
  25.6671661  55.1685209  34.4348951  25.4796866  56.1056376  34.9590742
  26.8631661  55.0185209  33.7158951  27.5984518  55.8222173  33.6768235
  27.1461661  53.8405209  33.0318951  28.0885235  53.7699948  32.4886738
  26.2101661  52.7995209  33.0738951  27.1401661  52.5985209  29.8638951
  26.1301661  53.2815209  29.6778951  28.3421661  53.1635209  29.8028951
  29.1415181  52.5820834  30.0104191  28.5711661  54.5725209  29.5028951
  28.0485466  55.1941997  30.2298638  30.0651661  54.8985209  29.5648951
  30.5239284  54.1299198  28.9428912  30.2186527  55.8755233  29.1066285
  30.7061661  54.8805209  30.9518951  30.4680000  53.9363240  31.4416601
  32.2201661  55.0265209  30.8388951  32.4591360  55.9707638  30.3496123
  32.6624669  55.0119252  31.8350165  32.6224201  54.2013613  30.2511845
  30.1211661  55.9835209  31.8278951  29.0468373  55.8327984  31.9337240
  30.5902457  55.9543570  32.8113660  30.3077416  56.9528033  31.3655312
  28.0151661  54.9325209  28.1298951  27.3931661  55.9845209  27.9638951
  28.1961661  54.0395209  27.1018951  28.7125331  53.1900093  27.2802055
  27.7171661  54.2865209  25.7448951  28.0064005  55.2887181  25.4285986
  28.3191661  53.2735209  24.7698951  28.1122478  52.2797776  25.1670831
  27.8055065  53.3973826  23.8165263  29.8171661  53.4345209  24.5628951
  30.0107585  54.4564069  24.2367482  30.3163678  53.2569738  25.5154584
  30.3501661  52.4605209  23.5218951  30.0084882  51.4544501  23.7651574
  29.9723272  52.7444299  22.5396870  31.8091661  52.4615209  23.4798951
  32.2854718  52.8898606  24.2607648  32.5411661  51.9435209  22.4958951
  31.9591661  51.3705209  21.4498951  30.9514753  51.3260563  21.3981070
  32.5265979  50.9815335  20.7104294  33.8631661  51.9995209  22.5598951
  34.3092335  52.4348011  23.3546625  34.4189169  51.6066799  21.8136273
  26.1941661  54.2275209  25.6848951  25.5641661  55.0235209  24.9848951
  25.6671661  53.3515209  26.4838951  26.2259836  52.7767800  27.0983015
  24.2211661  53.1435209  26.4658951  23.8650020  53.1165382  25.4360804
  23.8611661  51.8185209  27.1428951  24.3854426  51.0280536  26.6058711
  24.2305314  51.8679004  28.1672149  22.3711661  51.5195209  27.1558951
  21.8810935  52.2464031  27.8036388  21.9912893  51.6249176  26.1396829
  22.0821661  50.1135209  27.6618951  22.5825524  49.9686350  28.6193504
  21.0065766  49.9952084  27.7930770  22.5541661  49.0955209  26.7288951
  22.8284323  49.4124652  25.8099698  22.6451661  47.7985209  27.0058951
  22.2971661  47.3315209  28.1988951  21.9585969  47.9667699  28.9073650
  22.3725848  46.3431345  28.3925544  23.0891661  46.9595209  26.0788951
  23.3548853  47.3106561  25.1699410  23.1593877  45.9735764  26.2864550
  23.4931661  54.2945209  27.1528951  22.4851661  54.7885209  26.6448951
  23.9801661  54.7715209  28.2188951  24.9005112  54.4990343  28.5332442
  23.2051661  55.6815209  29.0548951  22.1707044  55.7063213  28.7122976
  23.2261661  55.2205209  30.5128951  24.2552344  55.0908411  30.8480083
  22.7273727  55.9527418  31.1478421  22.5341661  53.9145209  30.7408951
  21.1711661  53.7635209  30.6148951  20.8471661  52.5055209  30.8718951
  19.8084558  52.1784654  30.8248377  21.9531661  51.8415209  31.1598951
  22.0129964  50.8618872  31.3983021  23.0221661  52.7005209  31.0838951
  24.0291883  52.3367915  31.2881218  23.7291661  57.1095209  28.9478951
  23.0301661  58.0605209  29.3028951  24.9381661  57.2855209  28.4738951
  25.5002439  56.4754037  28.2550847  25.5311661  58.6075209  28.2968951
  26.6137340  58.5166663  28.2080611  24.9911661  59.2745209  27.0308951
  23.9104862  59.3579653  27.1460779  25.4286558  60.2715653  26.9798527
  25.3071661  58.5165209  25.7508951  26.3801184  58.3268854  25.7206858
  24.7714851  57.5674962  25.7732545  24.8961661  59.3015209  24.5138951
  23.8257474  59.5027910  24.5562388  25.4420178  60.2446944  24.4900354
  25.1851661  58.5625209  23.2878951  25.8529194  57.8078710  23.3565138
  24.6341661  58.8175209  22.1028951  23.7521661  59.7975209  21.9618951
  23.4933774  60.3586987  22.7607742  23.3431954  59.9782954  21.0562665
  24.9691661  58.0825209  21.0518951  25.6395532  57.3342658  21.1557970
  24.5524915  58.2741285  20.1520243  25.2651661  59.4925209  29.5078951
  24.6721661  60.5665209  29.3808951  25.6881661  58.9895209  30.6728951
  26.6061661  57.7085209  31.0048951  27.5201742  57.7164471  30.4110713
  26.0641232  56.7802833  30.8241650  26.8651661  57.9455209  32.4658951
  27.8321922  58.4388595  32.5637554  26.8991750  56.9779194  32.9665867
  25.7631661  58.7915209  33.0148951  26.1265264  59.3416862  33.8828735
  24.8780308  58.2192165  33.2925689  25.4211661  59.7675209  31.8858951
  24.3674184  60.0462280  31.8798622  26.2791661  61.0265209  31.9778951
  27.3821661  61.0705209  31.4268951  25.6961661  62.0355209  32.6288951
  24.7140450  62.0456447  32.8643414  26.5031661  63.2025209  32.9748951
  27.1350627  63.4775934  32.1304183  25.6051661  64.3925209  33.3218951
  24.9861386  64.0959442  34.1686220  26.2562559  65.2147214  33.6188271
  24.7131661  64.8415209  32.1748951  25.3462975  65.0535055  31.3133221
  24.0322915  64.0254990  31.9327795  23.7371661  66.3385209  32.5888951
  22.8731661  66.6025209  31.0158951  22.2642594  65.7286780  30.7840975
  22.2322152  67.4805362  31.0957177  23.6031196  66.7572092  30.2213256
  27.4331661  62.8945209  34.1438951  27.1781661  61.9705209  34.9178951
  28.4971661  63.6205209  34.2328951  28.7001964  64.3072970  33.5207037
  29.4541661  63.4485209  35.3208951  29.8900518  62.4505059  35.2754113
  30.5801661  64.4795209  35.2108951  31.0271549  64.2750010  34.2380272
  30.1304337  65.4723766  35.2020383  31.6621661  64.4195209  36.2918951
  31.2035778  64.5929791  37.2653990  32.3401661  63.0535209  36.2858951
  32.7994134  62.8795324  35.3127976  33.1074473  63.0247480  37.0595568
  31.5989242  62.2785493  36.4810356  32.6851661  65.5315209  36.0858951
  32.1861969  66.4992001  36.1381077  33.4469562  65.4736987  36.8633484
  33.1545966  65.4176213  35.1087764  28.7641661  63.5745209  36.6768951
  29.1601661  62.9165209  37.6418951  27.7201661  64.3305209  36.8458951
  27.3975651  64.7788315  36.0002914  27.0261661  64.6265209  38.0928951
  27.7396487  64.9824889  38.8360833  25.9651661  65.7095209  37.8748951
  25.3440300  65.3899093  37.0381529  25.3592394  65.7553908  38.7797977
  26.5421661  67.0865209  37.5808951  25.7646033  67.8195152  37.7958748
  27.3836763  67.2416447  38.2560962  27.0091661  67.2505209  36.1438951
  27.7101661  68.2415209  35.8428951  26.6681661  66.3785209  35.3118951
  26.3821661  63.3745209  38.6778951  26.0211661  63.3445209  39.8568951
  26.2601661  62.4445209  37.7398951  26.4758906  62.5413967  36.7579698
  25.6991661  61.1785209  38.2038951  24.7913098  61.3336986  38.7868324
  25.3731661  60.2355209  37.0238951  26.2263504  60.2098852  36.3460170
  25.0811661  58.8235209  37.5278951  24.2277526  58.8482833  38.2055182
  24.8539690  58.1749213  36.6818452  25.9531045  58.4382924  38.0565008
  24.1901661  60.7765209  36.2218951  24.4370326  61.7632395  35.8300462
  23.9725584  60.1014770  35.3942102  23.3159181  60.8512728  36.8685816
  26.6741661  60.5045209  39.1648951  26.2611661  59.7695209  40.0648951
  27.9701661  60.6985209  39.0218951  28.3111577  61.1736772  38.1984568
  28.9431661  60.2095209  39.9898951  28.7553083  59.1570811  40.2024484
  30.3661661  60.3515209  39.4398951  30.3310063  60.0946532  38.3811780
  30.6570300  61.3961768  39.5503141  31.3761661  59.4715209  40.1378951
  31.9221661  59.8425209  41.3658951  31.6066580  60.7810821  41.8215892
  32.8551661  59.0365209  42.0088951  33.2769556  59.3376705  42.9678030
  33.2471661  57.8485209  41.4248951  34.1701661  57.0475209  42.0588951
  34.4712264  57.4112866  42.8947401  32.7191661  57.4565209  40.2078951
  33.0274167  56.5176785  39.7478332  31.7881661  58.2705209  39.5708951
  31.3686113  57.9705822  38.6106292  28.8221661  60.9565209  41.3118951
  28.7411661  62.1875209  41.3318951  28.8221661  60.2815209  42.4568951
  28.9091661  58.7965209  42.5198951  29.9443054  58.4686756  42.4244781
  28.3108091  58.3436066  41.7293659  28.3451661  58.5345209  43.8858951
  28.8493219  57.6619370  44.3012544  27.2810507  58.3229765  43.7809735
  28.5671661  59.7465209  44.7308951  29.5449902  59.6819639  45.2081702
  27.8001641  59.8864291  45.4926255  28.5451661  60.9175209  43.7468951
  27.5647807  61.3897324  43.6839740  29.5911661  61.9655209  44.1228951
  30.7851661  61.6585209  44.1798951  29.0501661  63.1905209  44.3588951
  28.0663314  63.3815513  44.2336917  29.9251661  64.2925209  44.7468951
  30.8526763  64.2199948  44.1789479  29.2651661  65.6325209  44.4338951
  28.3395721  65.7237919  45.0022659  29.9403321  66.4433501  44.7074044
  29.0435441  65.6888237  43.3681499  30.2881661  64.2115209  46.2268951
  31.3411661  64.7035209  46.6428951  29.3691661  63.6175209  47.0638951
  28.5199757  63.2337063  46.6744581  29.5481661  63.5735209  48.5128951
  30.6112648  63.4750420  48.7324908  29.0351661  64.8605209  49.1528951
  27.9697871  64.9685100  48.9494108  29.1965724  64.8206251  50.2301400
  29.5722245  65.7129297  48.7368820  28.8431661  62.3635209  49.1158951
  28.0721661  61.6815209  48.4338951  29.1841661  62.0065209  50.3408951
  30.0354539  62.4498304  50.6553553  28.5361661  61.0445209  51.2278951
  28.9343160  61.1468882  52.2373984  27.0261661  61.2875209  51.2708951
  26.6355254  61.2513858  50.2539421  26.5631133  60.5001302  51.8656202
  26.6681661  62.6285209  51.8798951  25.7751661  63.3275209  51.3968951
  27.3641661  62.9975209  52.9508951  27.1673368  63.8819248  53.3971998
  28.0865287  62.3917396  53.3132790  28.8291661  59.6075209  50.8058951
  28.2021661  58.6705209  51.3018951  29.6931661  59.4405209  49.7748951
  30.0071848  60.2132719  49.2053800  30.1481661  58.0965209  49.4298951
  29.2885794  57.4267649  49.4046645  30.8071661  58.0975209  48.0508951
  31.6751101  58.7567854  48.0628854  31.1236670  57.0855687  47.7981500
  30.0933743  58.4509236  47.3067802  31.1181661  57.5585209  50.4788951
  31.6881661  58.3245209  51.2568951  31.1971661  56.2195209  50.5598951
  30.3861661  55.0575209  49.8118951  30.6408099  55.0075040  48.7532379
  29.3092014  55.1859200  49.9203369  30.9031661  53.8785209  50.5858951
  30.9052676  53.0117118  49.9250346  30.2272344  53.6961713  51.4213388
  32.2791661  54.1965209  51.0728951  32.9961778  54.0430912  50.2663887
  32.5743828  53.6035205  51.9385147  32.2281661  55.6805209  51.4488951
  31.8987308  55.8378138  52.4759441  33.5901661  56.3415209  51.2448951
  33.8901661  56.8165209  50.1478951  34.2981661  56.3975209  52.3118951
  33.9788093  55.9604869  53.1646036  35.5551661  57.1385209  52.3428951
  35.3787862  58.2103648  52.2526732  36.3471661  56.8545209  53.6388951
  35.7395862  57.1466255  54.4954125  36.6951661  55.3665209  53.7438951
  37.3031702  55.0737628  52.8879019  37.2526748  55.1872272  54.6632093
  35.7776441  54.7782012  53.7553972  37.6131661  57.7185209  53.6888951
  38.2778513  57.3637173  52.9012348  37.3129118  58.7443893  53.4754921
  38.3401661  57.6705209  55.0258951  38.6411601  56.6449690  55.2397775
  39.2242923  58.3065428  54.9823491  37.6762191  58.0256391  55.8140355
  36.3941661  56.7795209  51.1178951  36.5041661  55.6065209  50.7538951
  36.9201661  57.8455209  50.3558951  36.6578732  58.7846556  50.6191970
  37.8121661  57.6715209  49.2208951  38.4715997  58.5380839  49.1727793
  38.4054433  56.7731534  49.3913570  37.0791661  57.5355209  47.9008951
  37.7071661  57.4155209  46.8458951  35.7181661  57.6745209  47.9238951
  35.1911949  57.9742123  48.7317229  34.9861661  57.3125209  46.7168951
  35.6852623  56.9992738  45.9414984  34.0211661  56.1595209  46.9998951
  33.4652714  56.3527438  47.9173618  33.3232268  56.0387316  46.1714081
  34.7021661  54.8395209  47.1818951  34.8711661  53.9425209  46.1508951
  35.5041661  52.8735209  46.6048951  35.7349629  52.0427383  45.9380878
  35.7501661  53.0465209  47.8918951  36.2219873  52.3940781  48.5016517
  35.2571661  54.2695209  48.2768951  35.3619874  54.5984578  49.3107782
  34.2201661  58.5095209  46.1578951  33.6161661  58.4195209  45.0868951
  34.2891661  59.6315209  46.9188951  34.6861042  59.7026907  47.8448943
  33.6581661  60.8165209  46.3428951  32.6208662  60.5965680  46.0904496
  33.6831661  61.9755209  47.3408951  34.6966983  62.0826087  47.7273973
  33.3936136  62.8901976  46.8235693  32.7391661  61.7595209  48.5088951
  31.8561661  60.8985209  48.4598951  32.9201661  62.5425209  49.5678951
  32.3204557  62.4425765  50.3744050  33.6565580  63.2337383  49.5610773
  34.3301661  61.2285209  45.0348951  35.4991661  60.9135209  44.8068951
  33.5351661  61.9215209  44.2878951  32.6088540  62.1789650  44.5973585
  33.9461661  62.3045209  42.9398951  34.0527001  61.4144713  42.3197650
  32.9031661  63.2225209  42.3018951  31.9316842  62.9362733  42.7048645
  33.1380400  64.2412306  42.6103831  32.8631661  63.1495209  40.7828951
  33.8351407  63.4592457  40.3989199  32.6715210  62.1160909  40.4941103
  31.7791661  64.0475209  40.2028951  32.2353053  64.7627815  39.5184695
  31.0591645  63.4347533  39.6604812  31.0731661  64.7845209  41.2478951
  31.3361477  64.5867197  42.2027850  30.1211661  65.6845209  41.0258951
  29.7401661  65.9815209  39.7898951  30.1771944  65.5195308  39.0052478
  29.0149207  66.6681867  39.6395327  29.5431661  66.2955209  42.0498951
  29.8290496  66.0740872  42.9929422  28.8194035  66.9798313  41.8826057
  35.3071661  62.9905209  42.9568951  36.1561661  62.7155209  42.1068951
  35.6051661  63.8345209  43.8958951  34.9463567  63.9640360  44.6504117
  36.8171661  64.6485209  43.8878951  37.2391667  64.6714392  42.8831616
  36.5041661  66.0835209  44.3198951  36.0732756  66.0342005  45.3198952
  37.4500078  66.6238754  44.3586321  35.5431661  66.8095209  43.3888951
  34.5920717  66.2782871  43.4250993  35.4087380  67.8207886  43.7727780
  36.0321661  66.8745209  41.9518951  35.2251661  66.6425209  41.0238951
  37.2361661  67.1555209  41.7508951  37.8911661  64.0495209  44.7918951
  38.9491661  64.6485209  44.9878951  37.6411661  62.8585209  45.3298951
  36.7350299  62.4190380  45.2532718  38.6731661  62.1855209  46.1148951
  39.1814859  62.9078267  46.7536318  38.0511661  61.1025209  46.9998951
  37.3382046  60.5299308  46.4066619  38.8440736  60.4421273  47.3510049
  37.3301661  61.6755209  48.2028951  36.5111661  60.9975209  48.8318951
  37.6281661  62.9245209  48.5348951  37.1757383  63.3543817  49.3290163
  38.3061571  63.4400511  47.9920712  39.7541661  61.5845209  45.2228951
  39.4601661  61.0855209  44.1338951  40.9911661  61.6415209  45.6718951
  41.1980999  62.1637135  46.5112953  42.0951661  61.0075209  44.9628951
  41.9984195  61.1876388  43.8922426  43.4341661  61.5785209  45.4358951
  43.4536297  61.5004828  46.5229234  44.2210813  60.9538955  45.0131568
  43.6601661  63.0145209  45.0308951  43.8491661  63.3605209  43.6938951
  43.8302855  62.5737817  42.9397171  44.0591661  64.6825209  43.3148951
  44.2065502  64.9422226  42.2665942  44.0791661  65.6715209  44.2818951
  44.2861661  66.9825209  43.9128951  44.4035328  67.0917302  42.9663762
  43.8941661  65.3555209  45.6138951  43.9102879  66.1366337  46.3739631
  43.6861661  64.0295209  45.9828951  43.5403156  63.7722112  47.0319992
  42.0761661  59.4965209  45.1608951  41.8141661  59.0125209  46.2648951
  42.4111661  58.7675209  44.0538951  42.6319549  59.2252190  43.1810468
  42.4051661  57.3095209  44.0878951  41.5405722  56.9583988  44.6511799
  42.3311661  56.7365209  42.6708951  43.1822948  57.1325000  42.1169278
  42.4246610  55.6537580  42.7544601  41.0451661  57.0785209  41.9358951
  40.2087878  56.6764818  42.5076789  40.9607919  58.1640156  41.8840850
  41.0011661  56.3885209  40.2368951  39.4511661  57.1175209  39.6378951
  39.5233676  58.2045971  39.6718268  39.2714452  56.7977026  38.6114852
  38.6262958  56.7887851  40.2700524  43.6401661  56.7755209  44.8038951
  44.7651661  57.1565209  44.4758951  43.4641661  55.9405209  45.8008951
  42.5105833  55.7929609  46.0992324  44.5301661  55.2595209  46.5288951
  45.3977751  55.9050322  46.6655301  44.0501661  54.7775209  47.9158951
  43.2126636  54.0928946  47.7818222  45.1781661  54.0625209  48.6568951
  46.0159056  54.7467030  48.7917598  44.8202332  53.7306566  49.6314979
  45.5045283  53.1992011  48.0770086  43.5271661  55.9535209  48.7368951
  42.6912820  56.4188130  48.2144938  43.1929193  55.5970081  49.7112037
  44.3233447  56.6856028  48.8720129  45.0411661  54.0785209  45.7078951
  44.2501661  53.2935209  45.1768951  46.3401661  53.7905209  45.6338951
  46.8291661  52.2345209  45.5548951  46.8037281  51.8758874  44.5258979
  46.1954845  51.6011056  46.1756458  48.2271661  52.3475209  46.0918951
  48.9185778  52.3283218  45.2494698  48.4159415  51.4885741  46.7358482
  48.3381661  53.6245209  46.8598951  49.3739219  53.9639780  46.8510643
  47.9936117  53.5376286  47.8903472  47.4581661  54.6185209  46.0968951
  47.0524557  55.3977333  46.7421279  48.2311661  55.2615209  44.9478951
  49.4651661  55.2535209  44.9498951  47.4911661  55.7575209  43.9198951
  46.4830035  55.7954696  43.9675112  48.1421661  56.2015209  42.6938951
  48.8627326  55.4517092  42.3672981  47.1111661  56.4075209  41.5798951
  46.3406162  57.1057717  41.9066946  47.5991700  56.7977012  40.6867480
  46.4021661  55.1465209  41.1668951  47.1161661  54.0665209  40.6598951
  48.1992759  54.1425813  40.5640416  46.4641661  52.8985209  40.2768951
  47.0346031  52.0576541  39.8823759  45.0861661  52.8055209  40.3978951
  44.5708085  51.8935384  40.0965744  44.3641661  53.8745209  40.9028951
  43.2808378  53.8039625  41.0004728  45.0231661  55.0395209  41.2858951
  44.4559181  55.8806669  41.6843961  48.9211661  57.4905209  42.9288951
  48.4121661  58.4245209  43.5518951  50.1591661  57.5665209  42.4278951
  50.5437781  56.6491368  42.2530255  50.9971661  58.7295209  42.1618951
  50.3991081  59.6396635  42.1164391  52.0991661  58.8905209  43.2338951
  52.6967177  57.9794492  43.2652120  53.0031661  60.0825209  42.9058951
  52.4063596  60.9940906  42.8748588  53.7718625  60.1780639  43.6727577
  53.4755630  59.9249570  41.9363003  51.4721661  59.0455209  44.6238951
  50.9059717  59.9769222  44.6198593  50.7902224  58.2069879  44.7650140
  52.4851661  59.0725209  45.7608951  53.1672154  59.9111240  45.6207040
  51.9628238  59.1845986  46.7109984  53.0514680  58.1411899  45.7658571
  51.6221661  58.6105209  40.7738951  52.3791661  57.6755209  40.5048951
  51.2251661  59.5145209  39.9568951  51.4011661  59.1505209  38.4558951
  50.9246630  58.1949900  38.2367934  52.4588861  59.0959957  38.1983015
  50.7091661  60.3055209  37.7918951  49.7037837  59.9869947  37.5164931
  51.2668173  60.5649926  36.8920057  50.6751661  61.4535209  38.7478951
  49.7960247  62.0666878  38.5498151  51.5689671  62.0758395  38.7038610
  50.5571661  60.8055209  40.1308951  51.0970347  61.3603250  40.8982495
  49.0941661  60.6625209  40.5418951  48.5291661  59.5675209  40.4558951
  48.5131661  61.7665209  40.9838951  49.0002098  62.6491335  40.9215827
  47.1951661  61.7465209  41.6088951  47.0747320  60.8306336  42.1874668
  47.0291661  62.9435209  42.5478951  47.1058103  63.8055904  41.8852782
  46.0276175  62.9029524  42.9760942  48.0591661  63.0715209  43.6718951
  49.0545604  63.1532502  43.2353043  47.7711661  64.3095209  44.5158951
  46.7760546  64.2283000  44.9532222  48.5119199  64.3877485  45.3116746
  47.8194829  65.1982017  43.8865999  48.0661661  61.8175209  44.5368951
  48.3192218  60.9532867  43.9227604  48.8049164  61.9272627  45.3308132
  47.0793756  61.6735021  44.9768974  46.0921661  61.7555209  40.5558951
  46.1781661  62.4885209  39.5678951  45.0611661  60.8485209  40.7768951
  45.1748164  60.1936611  41.5373828  43.8581661  60.7535209  39.9558951
  43.8196582  61.5913240  39.2596894  43.8571661  59.4495209  39.1528951
  43.8130048  58.6291566  39.8692409  42.9563075  59.4442656  38.5392779
  45.0671661  59.2805209  38.2698951  45.1981661  60.0015209  37.0848951
  44.4070579  60.6964302  36.8032066  46.3121661  59.8475209  36.2668951
  46.4046828  60.4188855  35.3432691  47.3071661  58.9615209  36.6338951
  48.4111661  58.8045209  35.8258951  48.3829179  59.3562747  35.0408031
  47.2021661  58.2325209  37.8038951  47.9876437  57.5336195  38.0914055
  46.0851661  58.3955209  38.6158951  45.9957883  57.8255248  39.5406741
  42.6031661  60.8365209  40.8158951  42.5121661  60.1795209  41.8548951
  41.6911661  61.6345209  40.2598951  41.8321849  62.2016495  39.4361365
  40.4081661  61.7215209  40.9478951  40.5377072  61.4725014  42.0011318
  39.8371661  63.1375209  40.8468951  39.7744860  63.3858603  39.7874150
  38.8345021  63.1128263  41.2736914  40.6671661  64.1885209  41.5648951
  40.7651148  63.8929165  42.6094643  41.6538515  64.2203581  41.1027906
  40.0251661  65.5675209  41.4858951  39.7705871  65.7848890  40.4485718
  39.1187631  65.5755359  42.0912617  40.9231661  66.6085209  41.9748951
  41.4710492  67.0984272  41.2821358  41.0661661  66.9475209  43.2528951
  40.3681661  66.3295209  44.2008951  39.7221094  65.5947623  43.9502149
  40.4872094  66.5976713  45.1673441  41.9111661  67.9125209  43.5888951
  42.4427734  68.3861414  42.8725310  42.0193173  68.1695092  44.5596469
  39.4121661  60.7155209  40.3798951  39.4891661  60.3585209  39.2008951
  38.4961661  60.3135209  41.2348951  38.4870804  60.6203650  42.1971131
  37.4961661  59.3385209  40.8098951  37.9889363  58.4216842  40.4863413
  36.5491661  59.0035209  41.9638951  36.2272526  59.9317244  42.4360277
  35.6812565  58.4811949  41.5613924  37.1991661  58.1245209  43.0158951
  37.7321661  57.0555209  42.7078951  37.1621661  58.5705209  44.2658951
  37.5799452  58.0249131  45.0060792  36.7164118  59.4533557  44.4708503
  36.7051661  59.8345209  39.6028951  36.5561661  59.1155209  38.6158951
  36.2451661  61.0855209  39.5948951  36.5139430  61.6759724  40.3689916
  35.3931661  61.6505209  38.5598951  34.5229695  61.0038304  38.4474309
  35.0709009  62.6385025  38.8887368  36.0891661  61.7795209  37.2178951
  35.4411661  61.7345209  36.1698951  37.4551661  61.9005209  37.2278951
  37.9303944  61.8883448  38.1190231  38.2521661  62.1025209  36.0208951
  37.8462927  62.9352516  35.4465036  39.7041661  62.4195209  36.3818951
  40.0460741  61.6383186  37.0608069  40.2829494  62.3772103  35.4592252
  39.8941661  63.7805209  37.0378951  39.4775275  64.5324091  36.3676882
  39.3309846  63.7743169  37.9711085  41.3491661  64.1105209  37.3268951
  41.6521661  65.2775209  37.6628951  42.1941661  63.1935209  37.2198951
  38.1921661  60.8795209  35.1098951  38.4091661  60.9875209  33.9008951
  37.8631661  59.7665209  35.7838951  37.5988724  59.6863839  36.7554023
  37.9611661  58.5475209  34.9918951  38.2883460  58.7904372  33.9809331
  38.9731661  57.5795209  35.6148951  38.8260952  57.5269441  36.6936467
  38.8565255  56.5851542  35.1839314  40.4071661  57.9785209  35.3948951
  41.1291661  57.4705209  34.3208951  40.6443838  56.7764005  33.6343947
  42.4561661  57.8385209  34.1168951  43.0109163  57.4345291  33.2700518
  43.0711661  58.7185209  34.9908951  44.1111460  59.0060599  34.8364178
  42.3611661  59.2345209  36.0648951  42.8409654  59.9308147  36.7526943
  41.0351661  58.8625209  36.2638951  40.4770485  59.2654293  37.1090398
  36.6011661  57.8695209  34.8688951  36.5151661  56.7005209  34.4888951
  35.5711661  58.5475209  35.2858951  35.7346440  59.3279750  35.9057869
  34.1941661  58.2125209  34.9448951  34.0726022  57.1295531  34.9224907
  33.2271661  58.7925209  35.9828951  33.5778264  58.5674715  36.9901137
  33.1498365  59.8726373  35.8585213  31.8291661  58.2465209  35.8818951
  30.7961661  59.0315209  35.3838951  31.0103916  60.0522206  35.0670679
  29.5001661  58.5295209  35.2868951  28.6981868  59.1539937  34.8932409
  29.2321661  57.2315209  35.6928951  28.2197102  56.8341931  35.6210380
  30.2541661  56.4385209  36.1908951  30.0467275  55.4172176  36.5102834
  31.5461661  56.9475209  36.2828951  32.3508133  56.3245929  36.6735401
  33.8381661  58.7275209  33.5558951  33.0741661  59.6855209  33.4198951
  34.5651661  58.2535209  32.5358951  35.2792159  57.5657673  32.7288386
  34.4081661  58.7215209  31.1618951  33.3768857  59.0314322  30.9930316
  35.3271661  59.9145209  30.8938951  35.1117964  60.2656128  29.8847125
  35.0634954  60.6908734  31.6121253  36.8101661  59.5955209  31.0138951
  36.9947594  59.1798213  32.0044606  37.0663643  58.8550380  30.2561685
  37.6671661  60.8395209  30.8178951  37.3803422  61.3111219  29.8779890
  37.4725611  61.5255637  31.6422576  39.1511661  60.4975209  30.7818951
  39.4289128  60.0760044  31.7479599  39.3122573  59.7536379  30.0016472
  39.9911661  61.6995209  30.5038951  39.8423675  62.3887705  31.2270090
  40.9652714  61.4331261  30.4879987  39.7342522  62.0900102  29.6085670
  34.7001661  57.6035209  30.1648951  35.1751661  56.5335209  30.5448951
  34.4481661  57.9025209  28.9318951  34.1312493  58.8354377  28.7097931
  34.5561661  56.9315209  27.8468951  33.9620384  56.0483620  28.0817178
  34.0431661  57.5315209  26.5368951  32.9600153  57.6370476  26.5981132
  34.4960569  58.5131850  26.3978784  34.3751661  56.6985209  25.4388951
  34.0451440  57.0917194  24.6276737  35.9951661  56.4575209  27.6688951
  36.9351661  57.2415209  27.8148951  36.1101661  55.1345209  27.3578951
  35.3054678  54.5245337  27.3360880  37.4231661  54.5565209  27.0958951
  38.0755988  54.7197388  27.9536776  37.3081661  53.0525209  26.8488951
  38.3075791  52.6432637  26.7013093  36.8507771  52.5870364  27.7219469
  36.5161661  52.7885209  25.7038951  36.4571372  51.8401101  25.5673950
  38.0931661  55.2265209  25.8998951  39.3211661  55.3375209  25.8498951
  37.3521661  55.8095209  24.9038951  36.3475827  55.7583647  24.9949689
  37.9071661  56.4465209  23.7148951  38.6545953  55.7951724  23.2619117
  36.8051661  56.7155209  22.6868951  35.9872074  57.2090439  23.2117550
  37.2184791  57.3934377  21.9401011  36.2841661  55.4635209  22.0008951
  37.1296680  54.9392874  21.5554665  35.8191650  54.8277459  22.7543313
  35.2651661  55.7955209  20.9178951  34.4230245  56.3213709  21.3677598
  35.7336713  56.4342950  20.1691829  34.7671661  54.5915209  20.2598951
  35.1025966  53.7076733  20.6154216  33.9141661  54.5825209  19.2408951
  33.4451661  55.7215209  18.7398951  33.7388866  56.6028311  19.1362797
  32.7973801  55.7000818  17.9652899  33.5261661  53.4295209  18.7158951
  33.8805078  52.5619576  19.0925593  32.8778535  53.4234994  17.9414578
  38.6171661  57.7485209  24.0688951  39.5941661  58.1255209  23.4208951
  38.0861661  58.3415209  25.1128951  37.2470628  58.0344824  25.5837796
  38.7331661  59.5635209  25.5788951  38.9520854  60.2114541  24.7301571
  37.8211661  60.3185209  26.5478951  37.5502754  59.6251656  27.3441211
  38.4023356  61.1408995  26.9650710  36.5571661  60.8675209  25.9018951
  36.8619230  61.5428020  25.1023830  36.0140844  60.0235193  25.4766626
  35.6561661  61.6105209  26.8768951  34.6101661  61.0545209  27.2788951
  36.0021661  62.7575209  27.2418951  40.0711661  59.2605209  26.2478951
  40.9051661  60.1535209  26.4178951  40.2041661  58.0375209  26.5828951
  39.4770844  57.3542557  26.4260512  41.4231661  57.6075209  27.2598951
  41.9605800  58.4766809  27.6391661  41.0881661  56.6875209  28.4368951
  40.5657426  55.8509009  27.9729558  42.0253172  56.3357776  28.8683167
  40.2131661  57.2865209  29.5388951  39.3215152  57.7219697  29.0878477
  39.8031661  56.2085209  30.5358951  40.6943334  55.7728984  30.9877277
  39.1808324  56.6503650  31.3140823  39.2407764  55.4304596  30.0197180
  40.9461661  58.4235209  30.2448951  41.1891657  59.2033407  29.5231390
  40.3086355  58.8378938  31.0258887  41.8650343  58.0426582  30.6906798
  42.3601661  56.8925209  26.2918951  43.3961661  56.3625209  26.7008951
  41.9981661  56.8005209  25.0308951  41.0568247  57.0558963  24.7686755
  42.9041661  56.3425209  23.9888951  42.6471308  56.8594614  23.0643387
  43.9201094  56.6070698  24.2821058  42.8321661  54.8455209  23.7538951
  43.7951661  54.2405209  23.2778951  41.7641661  54.1895209  24.2118951
  41.0789334  54.6400600  24.8014457  41.5881661  52.7755209  23.9038951
  42.0835667  52.5385419  22.9623441  42.1951661  51.9055209  25.0088951
  42.2421239  50.8851941  24.6283333  43.2054821  52.2711903  25.1923280
  41.4111661  51.9255209  26.2988951  41.5351661  52.9845209  27.1958951
  42.2109191  53.8042659  26.9520187  40.8151661  53.0075209  28.3848951
  40.9196764  53.8406417  29.0799413  39.9631661  51.9605209  28.6838951
  39.2481661  51.9775209  29.8598951  39.4183729  52.7588280  30.3911093
  39.8211661  50.8985209  27.8108951  39.1474100  50.0746394  28.0462085
  40.5471661  50.8865209  26.6228951  40.4428767  50.0525385  25.9288510
  40.1131661  52.4355209  23.7288951  39.2391661  53.2175209  24.1078951
  39.8681661  51.2845209  22.9868951  40.6391541  50.8022535  22.5474692
  38.5191661  50.7715209  22.7728951  37.8768631  51.0635185  23.6037281
  37.9301661  51.3365209  21.4768951  38.3250216  52.3439921  21.3457834
  38.2671072  50.7049541  20.6548890  36.4121661  51.3855209  21.4878951
  35.7951661  50.9545209  22.4848951  35.8271661  51.8585209  20.4888951
  38.5091661  49.2455209  22.7298951  39.5541661  48.6095209  22.8878951
  37.2651661  48.7045209  22.6718951  36.4438163  49.2911146  22.7092002
  37.0801661  47.2585209  22.6048951  38.0366230  46.7574236  22.7538613
  36.1081661  46.7895209  23.6898951  35.1689811  47.3220063  23.5399286
  35.9479771  45.7219127  23.5393886  36.6041661  47.0305209  25.0958951
  37.3151661  46.0485209  25.7808951  37.5115382  45.0976631  25.2855096
  37.7731661  46.2655209  27.0778951  38.3270230  45.4898685  27.6067692
  37.5211661  47.4765209  27.6938951  37.9721661  47.6965209  28.9758951
  38.4456724  46.9454699  29.3410168  36.8191661  48.4685209  27.0338951
  36.6208791  49.4230150  27.5214645  36.3651661  48.2415209  25.7388951
  35.8123848  49.0186675  25.2110920  36.5691661  46.8375209  21.2318951
  35.6361661  47.4405209  20.6978951  37.2041661  45.8495209  20.6878951
  37.9276429  45.3757820  21.2096731  36.9511661  45.4255209  19.3138951
  37.2253593  46.2246196  18.6251581  37.7771661  44.1815209  18.9738951
  38.8247119  44.4339412  19.1383067  37.4798766  43.3960305  19.6686783
  37.5921661  43.6915209  17.5458951  36.5295194  43.4999743  17.3969233
  37.9131606  44.4928972  16.8804195  38.3831661  42.4285209  17.2368951
  38.8211661  42.2565209  16.0768951  38.5661661  41.6085209  18.1638951
  35.4671661  45.1485209  19.0848951  34.9011661  45.5685209  18.0758951
  34.8191661  44.4835209  20.0868951  35.2457943  44.2461347  20.9710532
  33.4481661  44.0495209  19.8418951  33.3399421  43.7371888  18.8032251
  33.0891661  42.8685209  20.7478951  32.1768580  42.4210104  20.3535256
  33.9051661  42.1491149  20.6793452  32.8771661  43.2525209  22.1928951
  33.9561661  43.3715209  23.0658951  34.9615501  43.1828369  22.6894634
  33.7671661  43.7245209  24.3978951  34.6186162  43.8151269  25.0723765
  32.4881661  43.9625209  24.8638951  32.2961661  44.3125209  26.1818951
  33.1152120  44.3607671  26.6803285  31.4001661  43.8505209  24.0178951
  30.3911352  44.0355703  24.3862887  31.6011661  43.4985209  22.6868951
  30.7499466  43.4114701  22.0116562  32.4661661  45.1935209  20.0648951
  31.2711661  45.0545209  19.7938951  32.9331661  46.3325209  20.5608951
  33.9032503  46.3846709  20.8371493  32.0911661  47.5055209  20.7678951
  31.0419106  47.2103461  20.7737067  32.4191661  48.1715209  22.1058951
  33.4892750  48.3688989  22.0425848  31.8782740  49.1165180  22.1560567
  32.1261661  47.3495209  23.3618951  32.7033281  46.4255902  23.3253308
  32.5061661  48.1365209  24.6108951  31.9290359  49.0604328  24.6483971
  32.2919680  47.5387211  25.4968157  33.5695967  48.3739464  24.5818266
  30.6571661  46.9435209  23.4058951  30.4190572  46.3434560  22.5276437
  30.4679126  46.3594746  24.3065472  30.0328596  47.8369736  23.4149937
  32.2671661  48.5085209  19.6308951  31.5671661  49.5215209  19.5768951
  33.2721661  48.2045209  18.8238951  33.9024493  47.4244769  18.9437859
  33.5051661  49.1175209  17.7088951  33.5504311  50.1429031  18.0758305
  34.8251661  48.7895209  17.0118951  34.8004971  47.7310323  16.7528730
  34.8668603  49.3852954  16.1000758  36.0571661  49.0755209  17.8618951
  36.0870130  50.1426404  18.0820454  35.9775434  48.5149965  18.7933320
  37.3511661  48.6865209  17.1708951  38.4311661  48.7595209  17.7628951
  37.2481661  48.2725209  15.9118951  38.0774777  48.0009726  15.4033627
  36.3410700  48.2314179  15.4696412  32.3561661  49.0645209  16.7068951
  31.8301661  47.9875209  16.4128951  31.6591661  49.9995209  16.6238951
  31.7397298  50.7476622  17.2976112  30.6241661  50.0995209  15.5988951
  29.8700334  49.3289677  15.7589911  29.9431661  51.4705209  15.6568951
  30.7243292  52.2242805  15.5582545  29.2686365  51.5331648  14.8029715
  29.1611661  51.7155209  16.9398951  28.5776835  50.8184223  17.1469286
  29.8838344  51.8711778  17.7409074  28.2321661  52.9155209  16.8558951
  27.5171661  53.2005209  17.8428951  28.2191661  53.5775209  15.7938951
  31.2011661  49.8585209  14.2068951  32.3341661  50.2485209  13.9228951
  30.7021661  49.2985209  13.2318951  39.9021661  44.8305209  42.9098951
  38.1211661  42.4035209  41.1728951  39.6581661  42.9225209  42.5398951
  38.4141661  43.7315209  42.5328951  30.6870113  20.3642753  33.0536493
  39.2768553  67.1574913  56.2008903  33.2328553  45.6623833  12.1101673
  57.3486993  58.3864913  15.8564083  27.9900113  27.4122753  24.7804083
  27.0590113  48.9483833  61.6738903  56.6646993  79.7195993  35.1316493
  65.5286993  56.7564913  38.2306493  31.5018553  55.9704913  10.6841673
  69.3585433  84.8495993  75.9061313  68.9175433  84.9675993  76.6491313
  69.0755433  84.0745993  75.6211313  69.2515433  84.7525993  75.9741313
  69.1015433  78.6415993  72.4131313  68.3235433  78.8035993  72.0531313
  69.1405433  77.7705993  72.4351313  68.9925433  78.5365993  72.3631313
  72.2405433  83.9045993  71.0851313  71.8485433  83.5335993  70.3991313
  72.1605433  83.3065993  71.7141313  72.1705433  83.7615993  71.0761313
  71.8675433  85.5455993  74.9851313  72.4755433  85.3755993  75.5881313
  71.1165433  85.4055993  75.4061313  71.8465433  85.4995993  75.1361313
  76.1495433  74.8805993  74.9341313  76.0795433  75.5575993  74.3881313
  76.8905433  74.4925993  74.6851313  76.2485433  74.9235993  74.8161313
  70.7585433  88.6365993  71.0621313  71.2255433  88.7205993  70.3301313
  71.2135433  88.0585993  71.5311313  70.8945433  88.5635993  71.0231313
  70.7445433  82.1055993  76.3631313  70.2825433  81.7135993  75.7361313
  71.4445433  81.5925993  76.4551313  70.7795433  81.9725993  76.2841313
  72.7455433  80.2055993  76.3861313  73.5625433  80.0185993  76.6291313
  72.2685433  79.5915993  76.7821313  72.7955433  80.0875993  76.4811313
  76.9495433  86.1865993  78.9961313  77.2975433  85.3875993  79.0261313
  77.6145433  86.6905993  78.7411313  77.0995433  86.1425993  78.9631313
  77.0065433  85.6355993  75.2071313  77.3375433  84.9915993  75.6931313
  77.2465433  85.4245993  74.3961313  77.0905433  85.5095993  75.1591313
  73.3425433  75.2995993  75.6521313  73.0465433  75.8005993  75.0021313
  74.2095433  75.3775993  75.5951313  73.4265433  75.3855993  75.5481313
  76.3215433  74.4415993  77.8751313  76.3945433  75.3015993  78.0041313
  76.2835433  74.3665993  77.0071313  76.3265433  74.5575993  77.7661313
  69.2005433  79.8665993  79.3761313  68.9445433  80.6975993  79.3011313
  68.5365433  79.4835993  79.7931313  69.0645433  79.9325993  79.4271313
  74.9505433  87.4205993  74.7561313  74.3715433  87.1455993  75.3481313
  75.5745433  86.8115993  74.7811313  74.9575433  87.2905993  74.8471313
  72.2295433  74.6835993  79.8671313  71.7085433  74.0555993  79.5591313
  72.8205433  74.2465993  80.3381313  72.2405433  74.5255993  79.8911313
  70.6555433  88.2465993  75.2071313  71.3115433  87.6715993  75.2221313
  71.0445433  88.9955993  74.9861313  70.8105433  88.2715993  75.1771313
  71.4735433  86.7335993  78.7071313  71.8965433  86.3775993  78.0331313
  71.7975433  86.3115993  79.3991313  71.5835433  86.6185993  78.7101313
  69.5535433  76.5565993  74.6501313  69.4395433  75.6925993  74.6811313
  69.0785433  76.8505993  75.3201313  69.4665433  76.4725993  74.7531313
  77.4555433  77.0725993  77.8081313  77.5295433  77.6405993  77.1501313
  77.5765433  77.5645993  78.5181313  77.4835433  77.2295993  77.8161313
  72.0635433  72.8955993  76.1561313  72.5995433  73.5835993  76.1461313
  72.0665433  72.6215993  75.3281313  72.1425433  72.9565993  76.0321313
  75.0195433  83.3285993  80.1811313  75.1915433  83.1185993  81.0101313
  74.3645433  82.7945993  79.9651313  74.9485433  83.2185993  80.2721313
  72.5115433  76.7055993  77.8101313  72.7835433  76.2755993  77.1021313
  72.3355433  76.0695993  78.3811313  72.5255433  76.5485993  77.7901313
  72.3355433  84.1325993  77.3591313  73.1865433  84.0525993  77.1861313
  71.9785433  83.4505993  76.9471313  72.4085433  84.0195993  77.2721313
  70.6525433  77.8075993  80.8921313  71.4955433  78.0275993  80.8491313
  70.2635433  78.3805993  80.3611313  70.7195433  77.9245993  80.8071313
  74.7035433  84.1395993  75.5941313  75.4165433  84.6345993  75.6841313
  74.9255433  83.5725993  74.9681313  74.8415433  84.1285993  75.5151313
  68.8595433  85.7825993  78.9141313  68.1925433  86.2705993  79.1901313
  69.5395433  86.3275993  78.9431313  68.8615433  85.9345993  78.9591313
  68.9255433  82.4665993  74.0171313  68.7405433  81.6275993  74.1691313
  69.5845433  82.4305993  73.4471313  68.9955433  82.3375993  73.9551313
  69.0975433  86.6305993  73.5921313  69.6495433  87.1995993  73.9561313
  68.8655433  86.1155993  74.2571313  69.1445433  86.6385993  73.7441313
  73.3015433  85.6305993  80.6811313  73.7685433  85.9195993  81.3591313
  73.8735433  85.1525993  80.2271313  73.4555433  85.6025993  80.7141313
  68.9275433  85.0795993  71.2201313  69.6835433  84.6475993  71.2781313
  68.9425433  85.6115993  71.9111313  69.0415433  85.0945993  71.3311313
  69.8675433  83.3005993  79.2251313  70.2985433  83.1715993  78.4781313
  69.6625433  84.1485993  79.1991313  69.9005433  83.4065993  79.1111313
  76.2135433  76.8645993  72.8751313  76.2115433  76.7475993  72.0101313
  76.0325433  77.7125993  72.9671313  76.1865433  76.9725993  72.7611313
  73.9515433  86.8165993  77.5071313  74.0775433  87.6595993  77.6941313
  74.6195433  86.4175993  77.9031313  74.0695433  86.8825993  77.5931313
  72.5665433  79.6965993  72.5091313  72.4385433  79.2485993  73.2471313
  71.9845433  79.3545993  71.9571313  72.4615433  79.5795993  72.5371313
  72.7335433  81.5265993  79.1081313  71.9525433  81.4675993  78.7251313
  72.8055433  80.7745993  79.5451313  72.6285433  81.4075993  79.1161313
  77.8335433  78.4155993  80.2081313  78.3135433  79.1145993  80.4161313
  78.2065433  77.7685993  80.6591313  77.9595433  78.4235993  80.3051313
  74.6155433  73.9265993  72.1431313  74.7125433  73.8195993  73.0041313
  73.9075433  74.4325993  72.0781313  74.5255433  73.9855993  72.2611313
  71.7375433  82.2335993  73.3861313  72.0615433  81.4545993  73.1641313
  72.3835433  82.6015993  73.8411313  71.8805433  82.1725993  73.4201313
  68.7345433  73.8945993  74.3541313  68.8635433  73.1865993  73.8621313
  68.3675433  73.5765993  75.0791313  68.6995433  73.7425993  74.3891313
  78.4275433  81.5755993  74.8111313  78.4865433  82.2255993  75.3901313
  78.2385433  80.8795993  75.3021313  78.4085433  81.5685993  74.9691313
  72.9235433  76.0925993  71.3231313  72.4125433  76.1455993  70.6171313
  73.7075433  76.3325993  71.0271313  72.9635433  76.1355993  71.1751313
  77.6505433  83.6225993  79.2421313  76.8035433  83.4285993  79.3231313
  77.9745433  83.4575993  80.0351313  77.5725433  83.5695993  79.3711313
  71.4985433  83.3155993  81.5581313  72.2205433  83.8035993  81.5211313
  71.2285433  83.2855993  80.7291313  71.5655433  83.3835993  81.4301313
  74.7285433  78.4865993  78.2931313  75.5745433  78.2965993  78.3911313
  74.3585433  77.7095993  78.1551313  74.7985433  78.3435993  78.2871313
  69.5495433  79.8245993  74.9481313  70.0385433  79.5325993  75.6091313
  69.6785433  79.2315993  74.3211313  69.6405433  79.6935993  74.9531313
  74.0745433  81.2585993  70.4341313  73.4645433  80.8535993  70.9081313
  73.6885433  81.3765993  69.6611313  73.9275433  81.2155993  70.3901313
  75.5295433  79.7195993  73.1441313  75.8015433  80.5455993  73.2111313
  74.6665433  79.7945993  73.0481313  75.4425433  79.8525993  73.1391313
  69.0095433  75.6895993  79.6801313  69.0535433  76.0335993  78.8791313
  69.7645433  75.9265993  80.0471313  69.1275433  75.7755993  79.6161313
  75.5955433  88.2225993  80.5621313  74.9715433  88.8045993  80.3801313
  75.8435433  87.9365993  79.7761313  75.5395433  88.2665993  80.4191313
  77.1895433  82.9985993  70.4771313  76.3845433  82.8215993  70.1921313
  77.1565433  83.8495993  70.6691313  77.0655433  83.0975993  70.4641313
  73.1195433  79.0655993  80.6271313  73.5595433  78.9625993  79.8811313
  73.6645433  78.7525993  81.2321313  73.2645433  79.0045993  80.6061313
  76.6665433  74.0505993  80.6741313  75.8405433  73.9015993  80.9111313
  76.6265433  74.0855993  79.8031313  76.5385433  74.0335993  80.5801313
  72.2955433  77.1925993  73.9341313  72.4215433  76.8635993  73.1361313
  71.4835433  76.9435993  74.1331313  72.1945433  77.1075993  73.8461313
  70.9005433  78.8135993  70.4671313  70.2285433  78.8275993  71.0231313
  70.9955433  77.9655993  70.2831313  70.8155433  78.6905993  70.5221313
  74.8885433  87.5185993  71.5811313  75.3295433  87.5985993  72.3291313
  74.0835433  87.3025993  71.8391313  74.8345433  87.4985993  71.7301313
  72.2175433  86.5885993  72.1821313  71.9735433  86.2815993  72.9621313
  72.1845433  85.8855993  71.6661313  72.1765433  86.4395993  72.2211313
  75.0365433  84.8335993  70.9251313  74.2185433  84.5655993  71.0651313
  75.0085433  85.6855993  71.1101313  74.9115433  84.9205993  70.9731313
  77.0385433  73.4755993  70.8891313  77.1165433  73.7225993  70.0561313
  76.2955433  73.8525993  71.1471313  76.9405433  73.5675993  70.8041313
  70.5095433  78.5435993  77.2881313  70.1415433  78.8455993  78.0191313
  71.0435433  77.9145993  77.5721313  70.5335433  78.4955993  77.4381313
  76.1505433  82.6155993  73.3021313  76.2505433  82.7545993  72.4471313
  76.9685433  82.5555993  73.5981313  76.2855433  82.6265993  73.2191313
  69.3585433  84.8495993  56.8998903  68.9175433  84.9675993  57.6428903
  69.0755433  84.0745993  56.6148903  69.2515433  84.7525993  56.9678903
  69.1015433  78.6415993  53.4068903  68.3235433  78.8035993  53.0468903
  69.1405433  77.7705993  53.4288903  68.9925433  78.5365993  53.3568903
  72.2405433  83.9045993  52.0788903  71.8485433  83.5335993  51.3928903
  72.1605433  83.3065993  52.7078903  72.1705433  83.7615993  52.0698903
  71.8675433  85.5455993  55.9788903  72.4755433  85.3755993  56.5818903
  71.1165433  85.4055993  56.3998903  71.8465433  85.4995993  56.1298903
  76.1495433  74.8805993  55.9278903  76.0795433  75.5575993  55.3818903
  76.8905433  74.4925993  55.6788903  76.2485433  74.9235993  55.8098903
  70.7585433  88.6365993  52.0558903  71.2255433  88.7205993  51.3238903
  71.2135433  88.0585993  52.5248903  70.8945433  88.5635993  52.0168903
  69.2985433  87.5845993  63.1548903  69.4275433  87.3045993  63.9708903
  68.6885433  87.0435993  62.8458903  69.2275433  87.4635993  63.2298903
  75.8725433  85.1095993  68.2218903  75.6365433  85.1065993  69.0618903
  75.1245433  84.9615993  67.7978903  75.7265433  85.0865993  68.2828903
  70.7445433  82.1055993  57.3568903  70.2825433  81.7135993  56.7298903
  71.4445433  81.5925993  57.4488903  70.7795433  81.9725993  57.2778903
  75.2525433  77.7155993  62.7038903  75.9305433  77.7335993  62.1548903
  75.2075433  76.8795993  62.9488903  75.3455433  77.5945993  62.6588903
  75.8545433  88.3015993  65.4848903  75.9925433  89.0615993  65.0778903
  76.6455433  87.9365993  65.5118903  75.9915433  88.3605993  65.4288903
  72.7455433  80.2055993  57.3798903  73.5625433  80.0185993  57.6228903
  72.2685433  79.5915993  57.7758903  72.7955433  80.0875993  57.4748903
  76.9495433  86.1865993  59.9898903  77.2975433  85.3875993  60.0198903
  77.6145433  86.6905993  59.7348903  77.0995433  86.1425993  59.9568903
  77.0065433  85.6355993  56.2008903  77.3375433  84.9915993  56.6868903
  77.2465433  85.4245993  55.3898903  77.0905433  85.5095993  56.1528903
  73.3425433  75.2995993  56.6458903  73.0465433  75.8005993  55.9958903
  74.2095433  75.3775993  56.5888903  73.4265433  75.3855993  56.5418903
  76.3215433  74.4415993  58.8688903  76.3945433  75.3015993  58.9978903
  76.2835433  74.3665993  58.0008903  76.3265433  74.5575993  58.7598903
  69.2005433  79.8665993  60.3698903  68.9445433  80.6975993  60.2948903
  68.5365433  79.4835993  60.7868903  69.0645433  79.9325993  60.4208903
  74.9505433  87.4205993  55.7498903  74.3715433  87.1455993  56.3418903
  75.5745433  86.8115993  55.7748903  74.9575433  87.2905993  55.8408903
  72.2295433  74.6835993  60.8608903  71.7085433  74.0555993  60.5528903
  72.8205433  74.2465993  61.3318903  72.2405433  74.5255993  60.8848903
  75.5355433  76.8165993  70.1588903  75.6525433  76.3625993  69.4228903
  75.8235433  77.6145993  69.9558903  75.5955433  76.8675993  70.0198903
  70.6555433  88.2465993  56.2008903  71.3115433  87.6715993  56.2158903
  71.0445433  88.9955993  55.9798903  70.8105433  88.2715993  56.1708903
  71.2685433  76.4135993  69.1428903  70.4905433  76.0235993  69.0708903
  71.7595433  76.0015993  68.5518903  71.2255433  76.2945993  69.0448903
  71.4735433  86.7335993  59.7008903  71.8965433  86.3775993  59.0268903
  71.7975433  86.3115993  60.3928903  71.5835433  86.6185993  59.7038903
  77.9175433  74.0565993  68.3108903  78.0955433  73.2475993  68.0358903
  77.7745433  74.4975993  67.5718903  77.9225433  74.0025993  68.1608903
  68.6165433  76.9615993  66.7288903  68.6125433  77.5485993  67.3748903
  69.2105433  77.2735993  66.1718903  68.7035433  77.0945993  66.7418903
  69.5535433  76.5565993  55.6438903  69.4395433  75.6925993  55.6748903
  69.0785433  76.8505993  56.3138903  69.4665433  76.4725993  55.7468903
  71.6955433  88.9665993  63.8588903  70.9975433  88.4585993  63.9848903
  71.9555433  88.7615993  63.0508903  71.6305433  88.8615993  63.7578903
  77.4555433  77.0725993  58.8018903  77.5295433  77.6405993  58.1438903
  77.5765433  77.5645993  59.5118903  77.4835433  77.2295993  58.8098903
  73.0565433  87.8175993  66.4258903  73.8975433  87.8805993  66.2038903
  73.0195433  88.2145993  67.2018903  73.1755433  87.8855993  66.5078903
  72.0635433  72.8955993  57.1498903  72.5995433  73.5835993  57.1398903
  72.0665433  72.6215993  56.3218903  72.1425433  72.9565993  57.0258903
  75.0195433  83.3285993  61.1748903  75.1915433  83.1185993  62.0038903
  74.3645433  82.7945993  60.9588903  74.9485433  83.2185993  61.2658903
  75.7695433  83.2665993  63.7648903  75.8225433  84.1135993  63.9668903
  75.4845433  82.8965993  64.5018903  75.7355433  83.3365993  63.9028903
  68.5905433  87.6375993  69.9758903  69.3465433  87.9865993  70.2338903
  68.7675433  86.7845993  69.9188903  68.7285433  87.5625993  70.0058903
  72.5115433  76.7055993  58.8038903  72.7835433  76.2755993  58.0958903
  72.3355433  76.0695993  59.3748903  72.5255433  76.5485993  58.7838903
  72.3355433  84.1325993  58.3528903  73.1865433  84.0525993  58.1798903
  71.9785433  83.4505993  57.9408903  72.4085433  84.0195993  58.2658903
  70.6525433  77.8075993  61.8858903  71.4955433  78.0275993  61.8428903
  70.2635433  78.3805993  61.3548903  70.7195433  77.9245993  61.8008903
  74.7035433  84.1395993  56.5878903  75.4165433  84.6345993  56.6778903
  74.9255433  83.5725993  55.9618903  74.8415433  84.1285993  56.5088903
  68.8595433  85.7825993  59.9078903  68.1925433  86.2705993  60.1838903
  69.5395433  86.3275993  59.9368903  68.8615433  85.9345993  59.9528903
  76.5065433  79.4925993  70.0038903  76.0225433  80.0695993  70.4458903
  76.4785433  79.7875993  69.1828903  76.4305433  79.6215993  69.9478903
  68.9255433  82.4665993  55.0108903  68.7405433  81.6275993  55.1628903
  69.5845433  82.4305993  54.4408903  68.9955433  82.3375993  54.9488903
  69.0975433  86.6305993  54.5858903  69.6495433  87.1995993  54.9498903
  68.8655433  86.1155993  55.2508903  69.1445433  86.6385993  54.7378903
  73.3015433  85.6305993  61.6748903  73.7685433  85.9195993  62.3528903
  73.8735433  85.1525993  61.2208903  73.4555433  85.6025993  61.7078903
  68.9275433  85.0795993  52.2138903  69.6835433  84.6475993  52.2718903
  68.9425433  85.6115993  52.9048903  69.0415433  85.0945993  52.3248903
  69.8675433  83.3005993  60.2188903  70.2985433  83.1715993  59.4718903
  69.6625433  84.1485993  60.1928903  69.9005433  83.4065993  60.1048903
  76.2135433  76.8645993  53.8688903  76.2115433  76.7475993  53.0038903
  76.0325433  77.7125993  53.9608903  76.1865433  76.9725993  53.7548903
  73.9515433  86.8165993  58.5008903  74.0775433  87.6595993  58.6878903
  74.6195433  86.4175993  58.8968903  74.0695433  86.8825993  58.5868903
  72.0815433  80.2995993  68.3628903  71.5455433  79.7935993  68.8308903
  72.1015433  79.9095993  67.5828903  72.0045433  80.1665993  68.3168903
  72.5665433  79.6965993  53.5028903  72.4385433  79.2485993  54.2408903
  71.9845433  79.3545993  52.9508903  72.4615433  79.5795993  53.5308903
  72.7335433  81.5265993  60.1018903  71.9525433  81.4675993  59.7188903
  72.8055433  80.7745993  60.5388903  72.6285433  81.4075993  60.1098903
  73.1635433  81.2635993  63.5698903  73.1885433  80.5885993  63.0188903
  72.5175433  81.7595993  63.2578903  73.0725433  81.2365993  63.4428903
  70.9625433  82.6185993  69.1288903  70.9255433  83.1195993  68.4148903
  71.2935433  81.8665993  68.8338903  71.0055433  82.5805993  68.9798903
  76.8615433  87.6685993  68.5638903  77.2155433  87.4905993  69.3408903
  76.4255433  86.9395993  68.3648903  76.8495433  87.5345993  68.6498903
  77.8335433  78.4155993  61.2018903  78.3135433  79.1145993  61.4098903
  78.2065433  77.7685993  61.6528903  77.9595433  78.4235993  61.2988903
  74.6155433  73.9265993  53.1368903  74.7125433  73.8195993  53.9978903
  73.9075433  74.4325993  53.0718903  74.5255433  73.9855993  53.2548903
  71.7375433  82.2335993  54.3798903  72.0615433  81.4545993  54.1578903
  72.3835433  82.6015993  54.8348903  71.8805433  82.1725993  54.4138903
  68.7345433  73.8945993  55.3478903  68.8635433  73.1865993  54.8558903
  68.3675433  73.5765993  56.0728903  68.6995433  73.7425993  55.3828903
  78.4275433  81.5755993  55.8048903  78.4865433  82.2255993  56.3838903
  78.2385433  80.8795993  56.2958903  78.4085433  81.5685993  55.9628903
  72.9235433  76.0925993  52.3168903  72.4125433  76.1455993  51.6108903
  73.7075433  76.3325993  52.0208903  72.9635433  76.1355993  52.1688903
  77.6505433  83.6225993  60.2358903  76.8035433  83.4285993  60.3168903
  77.9745433  83.4575993  61.0288903  77.5725433  83.5695993  60.3648903
  71.4985433  83.3155993  62.5518903  72.2205433  83.8035993  62.5148903
  71.2285433  83.2855993  61.7228903  71.5655433  83.3835993  62.4238903
  74.7285433  78.4865993  59.2868903  75.5745433  78.2965993  59.3848903
  74.3585433  77.7095993  59.1488903  74.7985433  78.3435993  59.2808903
  69.5495433  79.8245993  55.9418903  70.0385433  79.5325993  56.6028903
  69.6785433  79.2315993  55.3148903  69.6405433  79.6935993  55.9468903
  74.0745433  81.2585993  51.4278903  73.4645433  80.8535993  51.9018903
  73.6885433  81.3765993  50.6548903  73.9275433  81.2155993  51.3838903
  70.8935433  84.3675993  66.8298903  70.4725433  83.8495993  66.2688903
  70.5415433  85.1535993  66.6868903  70.7795433  84.4075993  66.7258903
  75.5295433  79.7195993  54.1378903  75.8015433  80.5455993  54.2048903
  74.6665433  79.7945993  54.0418903  75.4425433  79.8525993  54.1328903
  69.0095433  75.6895993  60.6738903  69.0535433  76.0335993  59.8728903
  69.7645433  75.9265993  61.0408903  69.1275433  75.7755993  60.6098903
  75.6325433  86.1785993  63.4478903  75.3345433  86.7705993  64.0148903
  75.6875433  86.6205993  62.6988903  75.5965433  86.3315993  63.4208903
  73.6115433  85.1285993  66.8458903  72.8055433  84.8385993  67.0128903
  73.5225433  85.9965993  66.8518903  73.4795433  85.2135993  66.8708903
  74.8585433  78.2045993  65.6798903  75.0195433  77.4605993  66.1068903
  74.8135433  77.9555993  64.8448903  74.8755433  78.0575993  65.6198903
  76.6105433  74.0125993  65.5598903  77.3155433  74.3325993  65.1578903
  76.8515433  73.2055993  65.7868903  76.7495433  73.9405993  65.5338903
  75.5955433  88.2225993  61.5558903  74.9715433  88.8045993  61.3738903
  75.8435433  87.9365993  60.7698903  75.5395433  88.2665993  61.4128903
  77.1895433  82.9985993  51.4708903  76.3845433  82.8215993  51.1858903
  77.1565433  83.8495993  51.6628903  77.0655433  83.0975993  51.4578903
  73.1195433  79.0655993  61.6208903  73.5595433  78.9625993  60.8748903
  73.6645433  78.7525993  62.2258903  73.2645433  79.0045993  61.5998903
  76.6665433  74.0505993  61.6678903  75.8405433  73.9015993  61.9048903
  76.6265433  74.0855993  60.7968903  76.5385433  74.0335993  61.5738903
  78.3075433  85.0905993  66.4558903  77.5125433  85.0265993  66.8068903
  78.3785433  85.9375993  66.2608903  78.2005433  85.2055993  66.4788903
  69.2315433  74.4485993  67.7028903  69.0915433  75.2435993  67.3718903
  68.4455433  74.2055993  67.9918903  69.0945433  74.5305993  67.6968903
  72.2955433  77.1925993  54.9278903  72.4215433  76.8635993  54.1298903
  71.4835433  76.9435993  55.1268903  72.1945433  77.1075993  54.8398903
  72.2725433  79.2035993  65.3438903  72.6475433  79.8225993  64.8568903
  72.9465433  78.7295993  65.6288903  72.4275433  79.2255993  65.3138903
  70.0475433  77.6515993  64.6188903  70.1245433  77.4825993  63.7658903
  70.7935433  78.0575993  64.8158903  70.1685433  77.6865993  64.5218903
  72.6015433  75.0615993  67.0298903  72.5205433  74.2175993  67.2358903
  72.2875433  75.1055993  66.2168903  72.5435433  74.9435993  66.9398903
  69.4445433  82.8775993  64.8428903  69.7645433  83.0965993  64.0618903
  69.3445433  82.0125993  64.7878903  69.4765433  82.7825993  64.7198903
  70.9005433  78.8135993  51.4608903  70.2285433  78.8275993  52.0168903
  70.9955433  77.9655993  51.2768903  70.8155433  78.6905993  51.5158903
  74.8885433  87.5185993  52.5748903  75.3295433  87.5985993  53.3228903
  74.0835433  87.3025993  52.8328903  74.8345433  87.4985993  52.7238903
  74.2075433  82.1695993  66.2278903  73.8115433  82.9435993  66.3028903
  73.8015433  81.7965993  65.5518903  74.0895433  82.2285993  66.1388903
  72.2175433  86.5885993  53.1758903  71.9735433  86.2815993  53.9558903
  72.1845433  85.8855993  52.6598903  72.1765433  86.4395993  53.2148903
  75.0365433  84.8335993  51.9188903  74.2185433  84.5655993  52.0588903
  75.0085433  85.6855993  52.1038903  74.9115433  84.9205993  51.9668903
  74.6365433  75.1465993  63.6778903  73.7725433  75.2305993  63.7578903
  74.8565433  74.6325993  64.3468903  74.5415433  75.0835993  63.7888903
  76.2425433  80.2235993  67.2558903  75.9205433  79.6475993  66.6858903
  75.8835433  80.9785993  67.0098903  76.1425433  80.2495993  67.1358903
  77.0385433  73.4755993  51.8828903  77.1165433  73.7225993  51.0498903
  76.2955433  73.8525993  52.1408903  76.9405433  73.5675993  51.7978903
  71.8565433  75.2295993  64.3258903  71.5135433  74.4625993  64.0918903
  71.1615433  75.7535993  64.3898903  71.7035433  75.1935993  64.3008903
  70.5095433  78.5435993  58.2818903  70.1415433  78.8455993  59.0128903
  71.0435433  77.9145993  58.5658903  70.5335433  78.4955993  58.4318903
  70.1975433  86.9515993  65.7928903  69.6235433  87.3675993  66.3018903
  70.9305433  87.4165993  65.8878903  70.2215433  87.0815993  65.8818903
  76.1505433  82.6155993  54.2958903  76.2505433  82.7545993  53.4408903
  76.9685433  82.5555993  54.5918903  76.2855433  82.6265993  54.2128903
  75.2895433  75.5905993  67.4118903  75.5235433  75.0145993  66.7988903
  74.4475433  75.4095993  67.5528903  75.1995433  75.4785993  67.3418903
  69.3585433  84.8495993  37.8936493  68.9175433  84.9675993  38.6366493
  69.0755433  84.0745993  37.6086493  69.2515433  84.7525993  37.9616493
  69.1015433  78.6415993  34.4006493  68.3235433  78.8035993  34.0406493
  69.1405433  77.7705993  34.4226493  68.9925433  78.5365993  34.3506493
  72.2405433  83.9045993  33.0726493  71.8485433  83.5335993  32.3866493
  72.1605433  83.3065993  33.7016493  72.1705433  83.7615993  33.0636493
  71.8675433  85.5455993  36.9726493  72.4755433  85.3755993  37.5756493
  71.1165433  85.4055993  37.3936493  71.8465433  85.4995993  37.1236493
  76.1495433  74.8805993  36.9216493  76.0795433  75.5575993  36.3756493
  76.8905433  74.4925993  36.6726493  76.2485433  74.9235993  36.8036493
  70.7585433  88.6365993  33.0496493  71.2255433  88.7205993  32.3176493
  71.2135433  88.0585993  33.5186493  70.8945433  88.5635993  33.0106493
  69.2985433  87.5845993  44.1486493  69.4275433  87.3045993  44.9646493
  68.6885433  87.0435993  43.8396493  69.2275433  87.4635993  44.2236493
  75.8725433  85.1095993  49.2156493  75.6365433  85.1065993  50.0556493
  75.1245433  84.9615993  48.7916493  75.7265433  85.0865993  49.2766493
  70.7445433  82.1055993  38.3506493  70.2825433  81.7135993  37.7236493
  71.4445433  81.5925993  38.4426493  70.7795433  81.9725993  38.2716493
  75.2525433  77.7155993  43.6976493  75.9305433  77.7335993  43.1486493
  75.2075433  76.8795993  43.9426493  75.3455433  77.5945993  43.6526493
  75.8545433  88.3015993  46.4786493  75.9925433  89.0615993  46.0716493
  76.6455433  87.9365993  46.5056493  75.9915433  88.3605993  46.4226493
  72.7455433  80.2055993  38.3736493  73.5625433  80.0185993  38.6166493
  72.2685433  79.5915993  38.7696493  72.7955433  80.0875993  38.4686493
  76.9495433  86.1865993  40.9836493  77.2975433  85.3875993  41.0136493
  77.6145433  86.6905993  40.7286493  77.0995433  86.1425993  40.9506493
  77.0065433  85.6355993  37.1946493  77.3375433  84.9915993  37.6806493
  77.2465433  85.4245993  36.3836493  77.0905433  85.5095993  37.1466493
  73.3425433  75.2995993  37.6396493  73.0465433  75.8005993  36.9896493
  74.2095433  75.3775993  37.5826493  73.4265433  75.3855993  37.5356493
  76.3215433  74.4415993  39.8626493  76.3945433  75.3015993  39.9916493
  76.2835433  74.3665993  38.9946493  76.3265433  74.5575993  39.7536493
  69.2005433  79.8665993  41.3636493  68.9445433  80.6975993  41.2886493
  68.5365433  79.4835993  41.7806493  69.0645433  79.9325993  41.4146493
  74.9505433  87.4205993  36.7436493  74.3715433  87.1455993  37.3356493
  75.5745433  86.8115993  36.7686493  74.9575433  87.2905993  36.8346493
  72.2295433  74.6835993  41.8546493  71.7085433  74.0555993  41.5466493
  72.8205433  74.2465993  42.3256493  72.2405433  74.5255993  41.8786493
  75.5355433  76.8165993  51.1526493  75.6525433  76.3625993  50.4166493
  75.8235433  77.6145993  50.9496493  75.5955433  76.8675993  51.0136493
  70.6555433  88.2465993  37.1946493  71.3115433  87.6715993  37.2096493
  71.0445433  88.9955993  36.9736493  70.8105433  88.2715993  37.1646493
  71.2685433  76.4135993  50.1366493  70.4905433  76.0235993  50.0646493
  71.7595433  76.0015993  49.5456493  71.2255433  76.2945993  50.0386493
  71.4735433  86.7335993  40.6946493  71.8965433  86.3775993  40.0206493
  71.7975433  86.3115993  41.3866493  71.5835433  86.6185993  40.6976493
  77.9175433  74.0565993  49.3046493  78.0955433  73.2475993  49.0296493
  77.7745433  74.4975993  48.5656493  77.9225433  74.0025993  49.1546493
  68.6165433  76.9615993  47.7226493  68.6125433  77.5485993  48.3686493
  69.2105433  77.2735993  47.1656493  68.7035433  77.0945993  47.7356493
  69.5535433  76.5565993  36.6376493  69.4395433  75.6925993  36.6686493
  69.0785433  76.8505993  37.3076493  69.4665433  76.4725993  36.7406493
  71.6955433  88.9665993  44.8526493  70.9975433  88.4585993  44.9786493
  71.9555433  88.7615993  44.0446493  71.6305433  88.8615993  44.7516493
  77.4555433  77.0725993  39.7956493  77.5295433  77.6405993  39.1376493
  77.5765433  77.5645993  40.5056493  77.4835433  77.2295993  39.8036493
  73.0565433  87.8175993  47.4196493  73.8975433  87.8805993  47.1976493
  73.0195433  88.2145993  48.1956493  73.1755433  87.8855993  47.5016493
  72.0635433  72.8955993  38.1436493  72.5995433  73.5835993  38.1336493
  72.0665433  72.6215993  37.3156493  72.1425433  72.9565993  38.0196493
  75.0195433  83.3285993  42.1686493  75.1915433  83.1185993  42.9976493
  74.3645433  82.7945993  41.9526493  74.9485433  83.2185993  42.2596493
  75.7695433  83.2665993  44.7586493  75.8225433  84.1135993  44.9606493
  75.4845433  82.8965993  45.4956493  75.7355433  83.3365993  44.8966493
  68.5905433  87.6375993  50.9696493  69.3465433  87.9865993  51.2276493
  68.7675433  86.7845993  50.9126493  68.7285433  87.5625993  50.9996493
  72.5115433  76.7055993  39.7976493  72.7835433  76.2755993  39.0896493
  72.3355433  76.0695993  40.3686493  72.5255433  76.5485993  39.7776493
  72.3355433  84.1325993  39.3466493  73.1865433  84.0525993  39.1736493
  71.9785433  83.4505993  38.9346493  72.4085433  84.0195993  39.2596493
  70.6525433  77.8075993  42.8796493  71.4955433  78.0275993  42.8366493
  70.2635433  78.3805993  42.3486493  70.7195433  77.9245993  42.7946493
  74.7035433  84.1395993  37.5816493  75.4165433  84.6345993  37.6716493
  74.9255433  83.5725993  36.9556493  74.8415433  84.1285993  37.5026493
  68.8595433  85.7825993  40.9016493  68.1925433  86.2705993  41.1776493
  69.5395433  86.3275993  40.9306493  68.8615433  85.9345993  40.9466493
  76.5065433  79.4925993  50.9976493  76.0225433  80.0695993  51.4396493
  76.4785433  79.7875993  50.1766493  76.4305433  79.6215993  50.9416493
  68.9255433  82.4665993  36.0046493  68.7405433  81.6275993  36.1566493
  69.5845433  82.4305993  35.4346493  68.9955433  82.3375993  35.9426493
  69.0975433  86.6305993  35.5796493  69.6495433  87.1995993  35.9436493
  68.8655433  86.1155993  36.2446493  69.1445433  86.6385993  35.7316493
  73.3015433  85.6305993  42.6686493  73.7685433  85.9195993  43.3466493
  73.8735433  85.1525993  42.2146493  73.4555433  85.6025993  42.7016493
  68.9275433  85.0795993  33.2076493  69.6835433  84.6475993  33.2656493
  68.9425433  85.6115993  33.8986493  69.0415433  85.0945993  33.3186493
  69.8675433  83.3005993  41.2126493  70.2985433  83.1715993  40.4656493
  69.6625433  84.1485993  41.1866493  69.9005433  83.4065993  41.0986493
  76.2135433  76.8645993  34.8626493  76.2115433  76.7475993  33.9976493
  76.0325433  77.7125993  34.9546493  76.1865433  76.9725993  34.7486493
  73.9515433  86.8165993  39.4946493  74.0775433  87.6595993  39.6816493
  74.6195433  86.4175993  39.8906493  74.0695433  86.8825993  39.5806493
  72.0815433  80.2995993  49.3566493  71.5455433  79.7935993  49.8246493
  72.1015433  79.9095993  48.5766493  72.0045433  80.1665993  49.3106493
  72.5665433  79.6965993  34.4966493  72.4385433  79.2485993  35.2346493
  71.9845433  79.3545993  33.9446493  72.4615433  79.5795993  34.5246493
  72.7335433  81.5265993  41.0956493  71.9525433  81.4675993  40.7126493
  72.8055433  80.7745993  41.5326493  72.6285433  81.4075993  41.1036493
  73.1635433  81.2635993  44.5636493  73.1885433  80.5885993  44.0126493
  72.5175433  81.7595993  44.2516493  73.0725433  81.2365993  44.4366493
  70.9625433  82.6185993  50.1226493  70.9255433  83.1195993  49.4086493
  71.2935433  81.8665993  49.8276493  71.0055433  82.5805993  49.9736493
  76.8615433  87.6685993  49.5576493  77.2155433  87.4905993  50.3346493
  76.4255433  86.9395993  49.3586493  76.8495433  87.5345993  49.6436493
  77.8335433  78.4155993  42.1956493  78.3135433  79.1145993  42.4036493
  78.2065433  77.7685993  42.6466493  77.9595433  78.4235993  42.2926493
  74.6155433  73.9265993  34.1306493  74.7125433  73.8195993  34.9916493
  73.9075433  74.4325993  34.0656493  74.5255433  73.9855993  34.2486493
  71.7375433  82.2335993  35.3736493  72.0615433  81.4545993  35.1516493
  72.3835433  82.6015993  35.8286493  71.8805433  82.1725993  35.4076493
  68.7345433  73.8945993  36.3416493  68.8635433  73.1865993  35.8496493
  68.3675433  73.5765993  37.0666493  68.6995433  73.7425993  36.3766493
  78.4275433  81.5755993  36.7986493  78.4865433  82.2255993  37.3776493
  78.2385433  80.8795993  37.2896493  78.4085433  81.5685993  36.9566493
  72.9235433  76.0925993  33.3106493  72.4125433  76.1455993  32.6046493
  73.7075433  76.3325993  33.0146493  72.9635433  76.1355993  33.1626493
  77.6505433  83.6225993  41.2296493  76.8035433  83.4285993  41.3106493
  77.9745433  83.4575993  42.0226493  77.5725433  83.5695993  41.3586493
  71.4985433  83.3155993  43.5456493  72.2205433  83.8035993  43.5086493
  71.2285433  83.2855993  42.7166493  71.5655433  83.3835993  43.4176493
  74.7285433  78.4865993  40.2806493  75.5745433  78.2965993  40.3786493
  74.3585433  77.7095993  40.1426493  74.7985433  78.3435993  40.2746493
  69.5495433  79.8245993  36.9356493  70.0385433  79.5325993  37.5966493
  69.6785433  79.2315993  36.3086493  69.6405433  79.6935993  36.9406493
  74.0745433  81.2585993  32.4216493  73.4645433  80.8535993  32.8956493
  73.6885433  81.3765993  31.6486493  73.9275433  81.2155993  32.3776493
  70.8935433  84.3675993  47.8236493  70.4725433  83.8495993  47.2626493
  70.5415433  85.1535993  47.6806493  70.7795433  84.4075993  47.7196493
  75.5295433  79.7195993  35.1316493  75.8015433  80.5455993  35.1986493
  74.6665433  79.7945993  35.0356493  75.4425433  79.8525993  35.1266493
  69.0095433  75.6895993  41.6676493  69.0535433  76.0335993  40.8666493
  69.7645433  75.9265993  42.0346493  69.1275433  75.7755993  41.6036493
  75.6325433  86.1785993  44.4416493  75.3345433  86.7705993  45.0086493
  75.6875433  86.6205993  43.6926493  75.5965433  86.3315993  44.4146493
  73.6115433  85.1285993  47.8396493  72.8055433  84.8385993  48.0066493
  73.5225433  85.9965993  47.8456493  73.4795433  85.2135993  47.8646493
  74.8585433  78.2045993  46.6736493  75.0195433  77.4605993  47.1006493
  74.8135433  77.9555993  45.8386493  74.8755433  78.0575993  46.6136493
  76.6105433  74.0125993  46.5536493  77.3155433  74.3325993  46.1516493
  76.8515433  73.2055993  46.7806493  76.7495433  73.9405993  46.5276493
  75.5955433  88.2225993  42.5496493  74.9715433  88.8045993  42.3676493
  75.8435433  87.9365993  41.7636493  75.5395433  88.2665993  42.4066493
  77.1895433  82.9985993  32.4646493  76.3845433  82.8215993  32.1796493
  77.1565433  83.8495993  32.6566493  77.0655433  83.0975993  32.4516493
  73.1195433  79.0655993  42.6146493  73.5595433  78.9625993  41.8686493
  73.6645433  78.7525993  43.2196493  73.2645433  79.0045993  42.5936493
  76.6665433  74.0505993  42.6616493  75.8405433  73.9015993  42.8986493
  76.6265433  74.0855993  41.7906493  76.5385433  74.0335993  42.5676493
  78.3075433  85.0905993  47.4496493  77.5125433  85.0265993  47.8006493
  78.3785433  85.9375993  47.2546493  78.2005433  85.2055993  47.4726493
  69.2315433  74.4485993  48.6966493  69.0915433  75.2435993  48.3656493
  68.4455433  74.2055993  48.9856493  69.0945433  74.5305993  48.6906493
  72.2955433  77.1925993  35.9216493  72.4215433  76.8635993  35.1236493
  71.4835433  76.9435993  36.1206493  72.1945433  77.1075993  35.8336493
  72.2725433  79.2035993  46.3376493  72.6475433  79.8225993  45.8506493
  72.9465433  78.7295993  46.6226493  72.4275433  79.2255993  46.3076493
  70.0475433  77.6515993  45.6126493  70.1245433  77.4825993  44.7596493
  70.7935433  78.0575993  45.8096493  70.1685433  77.6865993  45.5156493
  72.6015433  75.0615993  48.0236493  72.5205433  74.2175993  48.2296493
  72.2875433  75.1055993  47.2106493  72.5435433  74.9435993  47.9336493
  69.4445433  82.8775993  45.8366493  69.7645433  83.0965993  45.0556493
  69.3445433  82.0125993  45.7816493  69.4765433  82.7825993  45.7136493
  70.9005433  78.8135993  32.4546493  70.2285433  78.8275993  33.0106493
  70.9955433  77.9655993  32.2706493  70.8155433  78.6905993  32.5096493
  74.8885433  87.5185993  33.5686493  75.3295433  87.5985993  34.3166493
  74.0835433  87.3025993  33.8266493  74.8345433  87.4985993  33.7176493
  74.2075433  82.1695993  47.2216493  73.8115433  82.9435993  47.2966493
  73.8015433  81.7965993  46.5456493  74.0895433  82.2285993  47.1326493
  72.2175433  86.5885993  34.1696493  71.9735433  86.2815993  34.9496493
  72.1845433  85.8855993  33.6536493  72.1765433  86.4395993  34.2086493
  75.0365433  84.8335993  32.9126493  74.2185433  84.5655993  33.0526493
  75.0085433  85.6855993  33.0976493  74.9115433  84.9205993  32.9606493
  74.6365433  75.1465993  44.6716493  73.7725433  75.2305993  44.7516493
  74.8565433  74.6325993  45.3406493  74.5415433  75.0835993  44.7826493
  76.2425433  80.2235993  48.2496493  75.9205433  79.6475993  47.6796493
  75.8835433  80.9785993  48.0036493  76.1425433  80.2495993  48.1296493
  77.0385433  73.4755993  32.8766493  77.1165433  73.7225993  32.0436493
  76.2955433  73.8525993  33.1346493  76.9405433  73.5675993  32.7916493
  71.8565433  75.2295993  45.3196493  71.5135433  74.4625993  45.0856493
  71.1615433  75.7535993  45.3836493  71.7035433  75.1935993  45.2946493
  70.5095433  78.5435993  39.2756493  70.1415433  78.8455993  40.0066493
  71.0435433  77.9145993  39.5596493  70.5335433  78.4955993  39.4256493
  70.1975433  86.9515993  46.7866493  69.6235433  87.3675993  47.2956493
  70.9305433  87.4165993  46.8816493  70.2215433  87.0815993  46.8756493
  76.1505433  82.6155993  35.2896493  76.2505433  82.7545993  34.4346493
  76.9685433  82.5555993  35.5856493  76.2855433  82.6265993  35.2066493
  75.2895433  75.5905993  48.4056493  75.5235433  75.0145993  47.7926493
  74.4475433  75.4095993  48.5466493  75.1995433  75.4785993  48.3356493
  69.3585433  84.8495993  18.8874083  68.9175433  84.9675993  19.6304083
  69.0755433  84.0745993  18.6024083  69.2515433  84.7525993  18.9554083
  69.1015433  78.6415993  15.3944083  68.3235433  78.8035993  15.0344083
  69.1405433  77.7705993  15.4164083  68.9925433  78.5365993  15.3444083
  72.2405433  83.9045993  14.0664083  71.8485433  83.5335993  13.3804083
  72.1605433  83.3065993  14.6954083  72.1705433  83.7615993  14.0574083
  71.8675433  85.5455993  17.9664083  72.4755433  85.3755993  18.5694083
  71.1165433  85.4055993  18.3874083  71.8465433  85.4995993  18.1174083
  76.1495433  74.8805993  17.9154083  76.0795433  75.5575993  17.3694083
  76.8905433  74.4925993  17.6664083  76.2485433  74.9235993  17.7974083
  70.7585433  88.6365993  14.0434083  71.2255433  88.7205993  13.3114083
  71.2135433  88.0585993  14.5124083  70.8945433  88.5635993  14.0044083
  69.2985433  87.5845993  25.1424083  69.4275433  87.3045993  25.9584083
  68.6885433  87.0435993  24.8334083  69.2275433  87.4635993  25.2174083
  75.8725433  85.1095993  30.2094083  75.6365433  85.1065993  31.0494083
  75.1245433  84.9615993  29.7854083  75.7265433  85.0865993  30.2704083
  70.7445433  82.1055993  19.3444083  70.2825433  81.7135993  18.7174083
  71.4445433  81.5925993  19.4364083  70.7795433  81.9725993  19.2654083
  75.2525433  77.7155993  24.6914083  75.9305433  77.7335993  24.1424083
  75.2075433  76.8795993  24.9364083  75.3455433  77.5945993  24.6464083
  75.8545433  88.3015993  27.4724083  75.9925433  89.0615993  27.0654083
  76.6455433  87.9365993  27.4994083  75.9915433  88.3605993  27.4164083
  72.7455433  80.2055993  19.3674083  73.5625433  80.0185993  19.6104083
  72.2685433  79.5915993  19.7634083  72.7955433  80.0875993  19.4624083
  76.9495433  86.1865993  21.9774083  77.2975433  85.3875993  22.0074083
  77.6145433  86.6905993  21.7224083  77.0995433  86.1425993  21.9444083
  77.0065433  85.6355993  18.1884083  77.3375433  84.9915993  18.6744083
  77.2465433  85.4245993  17.3774083  77.0905433  85.5095993  18.1404083
  73.3425433  75.2995993  18.6334083  73.0465433  75.8005993  17.9834083
  74.2095433  75.3775993  18.5764083  73.4265433  75.3855993  18.5294083
  76.3215433  74.4415993  20.8564083  76.3945433  75.3015993  20.9854083
  76.2835433  74.3665993  19.9884083  76.3265433  74.5575993  20.7474083
  69.2005433  79.8665993  22.3574083  68.9445433  80.6975993  22.2824083
  68.5365433  79.4835993  22.7744083  69.0645433  79.9325993  22.4084083
  74.9505433  87.4205993  17.7374083  74.3715433  87.1455993  18.3294083
  75.5745433  86.8115993  17.7624083  74.9575433  87.2905993  17.8284083
  72.2295433  74.6835993  22.8484083  71.7085433  74.0555993  22.5404083
  72.8205433  74.2465993  23.3194083  72.2405433  74.5255993  22.8724083
  75.5355433  76.8165993  32.1464083  75.6525433  76.3625993  31.4104083
  75.8235433  77.6145993  31.9434083  75.5955433  76.8675993  32.0074083
  70.6555433  88.2465993  18.1884083  71.3115433  87.6715993  18.2034083
  71.0445433  88.9955993  17.9674083  70.8105433  88.2715993  18.1584083
  71.2685433  76.4135993  31.1304083  70.4905433  76.0235993  31.0584083
  71.7595433  76.0015993  30.5394083  71.2255433  76.2945993  31.0324083
  71.4735433  86.7335993  21.6884083  71.8965433  86.3775993  21.0144083
  71.7975433  86.3115993  22.3804083  71.5835433  86.6185993  21.6914083
  77.9175433  74.0565993  30.2984083  78.0955433  73.2475993  30.0234083
  77.7745433  74.4975993  29.5594083  77.9225433  74.0025993  30.1484083
  68.6165433  76.9615993  28.7164083  68.6125433  77.5485993  29.3624083
  69.2105433  77.2735993  28.1594083  68.7035433  77.0945993  28.7294083
  69.5535433  76.5565993  17.6314083  69.4395433  75.6925993  17.6624083
  69.0785433  76.8505993  18.3014083  69.4665433  76.4725993  17.7344083
  71.6955433  88.9665993  25.8464083  70.9975433  88.4585993  25.9724083
  71.9555433  88.7615993  25.0384083  71.6305433  88.8615993  25.7454083
  77.4555433  77.0725993  20.7894083  77.5295433  77.6405993  20.1314083
  77.5765433  77.5645993  21.4994083  77.4835433  77.2295993  20.7974083
  73.0565433  87.8175993  28.4134083  73.8975433  87.8805993  28.1914083
  73.0195433  88.2145993  29.1894083  73.1755433  87.8855993  28.4954083
  72.0635433  72.8955993  19.1374083  72.5995433  73.5835993  19.1274083
  72.0665433  72.6215993  18.3094083  72.1425433  72.9565993  19.0134083
  75.0195433  83.3285993  23.1624083  75.1915433  83.1185993  23.9914083
  74.3645433  82.7945993  22.9464083  74.9485433  83.2185993  23.2534083
  75.7695433  83.2665993  25.7524083  75.8225433  84.1135993  25.9544083
  75.4845433  82.8965993  26.4894083  75.7355433  83.3365993  25.8904083
  68.5905433  87.6375993  31.9634083  69.3465433  87.9865993  32.2214083
  68.7675433  86.7845993  31.9064083  68.7285433  87.5625993  31.9934083
  72.5115433  76.7055993  20.7914083  72.7835433  76.2755993  20.0834083
  72.3355433  76.0695993  21.3624083  72.5255433  76.5485993  20.7714083
  72.3355433  84.1325993  20.3404083  73.1865433  84.0525993  20.1674083
  71.9785433  83.4505993  19.9284083  72.4085433  84.0195993  20.2534083
  70.6525433  77.8075993  23.8734083  71.4955433  78.0275993  23.8304083
  70.2635433  78.3805993  23.3424083  70.7195433  77.9245993  23.7884083
  74.7035433  84.1395993  18.5754083  75.4165433  84.6345993  18.6654083
  74.9255433  83.5725993  17.9494083  74.8415433  84.1285993  18.4964083
  68.8595433  85.7825993  21.8954083  68.1925433  86.2705993  22.1714083
  69.5395433  86.3275993  21.9244083  68.8615433  85.9345993  21.9404083
  76.5065433  79.4925993  31.9914083  76.0225433  80.0695993  32.4334083
  76.4785433  79.7875993  31.1704083  76.4305433  79.6215993  31.9354083
  68.9255433  82.4665993  16.9984083  68.7405433  81.6275993  17.1504083
  69.5845433  82.4305993  16.4284083  68.9955433  82.3375993  16.9364083
  69.0975433  86.6305993  16.5734083  69.6495433  87.1995993  16.9374083
  68.8655433  86.1155993  17.2384083  69.1445433  86.6385993  16.7254083
  73.3015433  85.6305993  23.6624083  73.7685433  85.9195993  24.3404083
  73.8735433  85.1525993  23.2084083  73.4555433  85.6025993  23.6954083
  68.9275433  85.0795993  14.2014083  69.6835433  84.6475993  14.2594083
  68.9425433  85.6115993  14.8924083  69.0415433  85.0945993  14.3124083
  69.8675433  83.3005993  22.2064083  70.2985433  83.1715993  21.4594083
  69.6625433  84.1485993  22.1804083  69.9005433  83.4065993  22.0924083
  76.2135433  76.8645993  15.8564083  76.2115433  76.7475993  14.9914083
  76.0325433  77.7125993  15.9484083  76.1865433  76.9725993  15.7424083
  73.9515433  86.8165993  20.4884083  74.0775433  87.6595993  20.6754083
  74.6195433  86.4175993  20.8844083  74.0695433  86.8825993  20.5744083
  72.0815433  80.2995993  30.3504083  71.5455433  79.7935993  30.8184083
  72.1015433  79.9095993  29.5704083  72.0045433  80.1665993  30.3044083
  72.5665433  79.6965993  15.4904083  72.4385433  79.2485993  16.2284083
  71.9845433  79.3545993  14.9384083  72.4615433  79.5795993  15.5184083
  72.7335433  81.5265993  22.0894083  71.9525433  81.4675993  21.7064083
  72.8055433  80.7745993  22.5264083  72.6285433  81.4075993  22.0974083
  73.1635433  81.2635993  25.5574083  73.1885433  80.5885993  25.0064083
  72.5175433  81.7595993  25.2454083  73.0725433  81.2365993  25.4304083
  70.9625433  82.6185993  31.1164083  70.9255433  83.1195993  30.4024083
  71.2935433  81.8665993  30.8214083  71.0055433  82.5805993  30.9674083
  76.8615433  87.6685993  30.5514083  77.2155433  87.4905993  31.3284083
  76.4255433  86.9395993  30.3524083  76.8495433  87.5345993  30.6374083
  77.8335433  78.4155993  23.1894083  78.3135433  79.1145993  23.3974083
  78.2065433  77.7685993  23.6404083  77.9595433  78.4235993  23.2864083
  74.6155433  73.9265993  15.1244083  74.7125433  73.8195993  15.9854083
  73.9075433  74.4325993  15.0594083  74.5255433  73.9855993  15.2424083
  71.7375433  82.2335993  16.3674083  72.0615433  81.4545993  16.1454083
  72.3835433  82.6015993  16.8224083  71.8805433  82.1725993  16.4014083
  68.7345433  73.8945993  17.3354083  68.8635433  73.1865993  16.8434083
  68.3675433  73.5765993  18.0604083  68.6995433  73.7425993  17.3704083
  78.4275433  81.5755993  17.7924083  78.4865433  82.2255993  18.3714083
  78.2385433  80.8795993  18.2834083  78.4085433  81.5685993  17.9504083
  72.9235433  76.0925993  14.3044083  72.4125433  76.1455993  13.5984083
  73.7075433  76.3325993  14.0084083  72.9635433  76.1355993  14.1564083
  77.6505433  83.6225993  22.2234083  76.8035433  83.4285993  22.3044083
  77.9745433  83.4575993  23.0164083  77.5725433  83.5695993  22.3524083
  71.4985433  83.3155993  24.5394083  72.2205433  83.8035993  24.5024083
  71.2285433  83.2855993  23.7104083  71.5655433  83.3835993  24.4114083
  74.7285433  78.4865993  21.2744083  75.5745433  78.2965993  21.3724083
  74.3585433  77.7095993  21.1364083  74.7985433  78.3435993  21.2684083
  69.5495433  79.8245993  17.9294083  70.0385433  79.5325993  18.5904083
  69.6785433  79.2315993  17.3024083  69.6405433  79.6935993  17.9344083
  74.0745433  81.2585993  13.4154083  73.4645433  80.8535993  13.8894083
  73.6885433  81.3765993  12.6424083  73.9275433  81.2155993  13.3714083
  70.8935433  84.3675993  28.8174083  70.4725433  83.8495993  28.2564083
  70.5415433  85.1535993  28.6744083  70.7795433  84.4075993  28.7134083
  75.5295433  79.7195993  16.1254083  75.8015433  80.5455993  16.1924083
  74.6665433  79.7945993  16.0294083  75.4425433  79.8525993  16.1204083
  69.0095433  75.6895993  22.6614083  69.0535433  76.0335993  21.8604083
  69.7645433  75.9265993  23.0284083  69.1275433  75.7755993  22.5974083
  75.6325433  86.1785993  25.4354083  75.3345433  86.7705993  26.0024083
  75.6875433  86.6205993  24.6864083  75.5965433  86.3315993  25.4084083
  73.6115433  85.1285993  28.8334083  72.8055433  84.8385993  29.0004083
  73.5225433  85.9965993  28.8394083  73.4795433  85.2135993  28.8584083
  74.8585433  78.2045993  27.6674083  75.0195433  77.4605993  28.0944083
  74.8135433  77.9555993  26.8324083  74.8755433  78.0575993  27.6074083
  76.6105433  74.0125993  27.5474083  77.3155433  74.3325993  27.1454083
  76.8515433  73.2055993  27.7744083  76.7495433  73.9405993  27.5214083
  75.5955433  88.2225993  23.5434083  74.9715433  88.8045993  23.3614083
  75.8435433  87.9365993  22.7574083  75.5395433  88.2665993  23.4004083
  77.1895433  82.9985993  13.4584083  76.3845433  82.8215993  13.1734083
  77.1565433  83.8495993  13.6504083  77.0655433  83.0975993  13.4454083
  73.1195433  79.0655993  23.6084083  73.5595433  78.9625993  22.8624083
  73.6645433  78.7525993  24.2134083  73.2645433  79.0045993  23.5874083
  76.6665433  74.0505993  23.6554083  75.8405433  73.9015993  23.8924083
  76.6265433  74.0855993  22.7844083  76.5385433  74.0335993  23.5614083
  78.3075433  85.0905993  28.4434083  77.5125433  85.0265993  28.7944083
  78.3785433  85.9375993  28.2484083  78.2005433  85.2055993  28.4664083
  69.2315433  74.4485993  29.6904083  69.0915433  75.2435993  29.3594083
  68.4455433  74.2055993  29.9794083  69.0945433  74.5305993  29.6844083
  72.2955433  77.1925993  16.9154083  72.4215433  76.8635993  16.1174083
  71.4835433  76.9435993  17.1144083  72.1945433  77.1075993  16.8274083
  72.2725433  79.2035993  27.3314083  72.6475433  79.8225993  26.8444083
  72.9465433  78.7295993  27.6164083  72.4275433  79.2255993  27.3014083
  70.0475433  77.6515993  26.6064083  70.1245433  77.4825993  25.7534083
  70.7935433  78.0575993  26.8034083  70.1685433  77.6865993  26.5094083
  72.6015433  75.0615993  29.0174083  72.5205433  74.2175993  29.2234083
  72.2875433  75.1055993  28.2044083  72.5435433  74.9435993  28.9274083
  69.4445433  82.8775993  26.8304083  69.7645433  83.0965993  26.0494083
  69.3445433  82.0125993  26.7754083  69.4765433  82.7825993  26.7074083
  70.9005433  78.8135993  13.4484083  70.2285433  78.8275993  14.0044083
  70.9955433  77.9655993  13.2644083  70.8155433  78.6905993  13.5034083
  74.8885433  87.5185993  14.5624083  75.3295433  87.5985993  15.3104083
  74.0835433  87.3025993  14.8204083  74.8345433  87.4985993  14.7114083
  74.2075433  82.1695993  28.2154083  73.8115433  82.9435993  28.2904083
  73.8015433  81.7965993  27.5394083  74.0895433  82.2285993  28.1264083
  72.2175433  86.5885993  15.1634083  71.9735433  86.2815993  15.9434083
  72.1845433  85.8855993  14.6474083  72.1765433  86.4395993  15.2024083
  75.0365433  84.8335993  13.9064083  74.2185433  84.5655993  14.0464083
  75.0085433  85.6855993  14.0914083  74.9115433  84.9205993  13.9544083
  74.6365433  75.1465993  25.6654083  73.7725433  75.2305993  25.7454083
  74.8565433  74.6325993  26.3344083  74.5415433  75.0835993  25.7764083
  76.2425433  80.2235993  29.2434083  75.9205433  79.6475993  28.6734083
  75.8835433  80.9785993  28.9974083  76.1425433  80.2495993  29.1234083
  77.0385433  73.4755993  13.8704083  77.1165433  73.7225993  13.0374083
  76.2955433  73.8525993  14.1284083  76.9405433  73.5675993  13.7854083
  71.8565433  75.2295993  26.3134083  71.5135433  74.4625993  26.0794083
  71.1615433  75.7535993  26.3774083  71.7035433  75.1935993  26.2884083
  70.5095433  78.5435993  20.2694083  70.1415433  78.8455993  21.0004083
  71.0435433  77.9145993  20.5534083  70.5335433  78.4955993  20.4194083
  70.1975433  86.9515993  27.7804083  69.6235433  87.3675993  28.2894083
  70.9305433  87.4165993  27.8754083  70.2215433  87.0815993  27.8694083
  76.1505433  82.6155993  16.2834083  76.2505433  82.7545993  15.4284083
  76.9685433  82.5555993  16.5794083  76.2855433  82.6265993  16.2004083
  75.2895433  75.5905993  29.3994083  75.5235433  75.0145993  28.7864083
  74.4475433  75.4095993  29.5404083  75.1995433  75.4785993  29.3294083
  69.2985433  87.5845993   6.1361673  69.4275433  87.3045993   6.9521673
  68.6885433  87.0435993   5.8271673  69.2275433  87.4635993   6.2111673
  75.8725433  85.1095993  11.2031673  75.6365433  85.1065993  12.0431673
  75.1245433  84.9615993  10.7791673  75.7265433  85.0865993  11.2641673
  75.2525433  77.7155993   5.6851673  75.9305433  77.7335993   5.1361673
  75.2075433  76.8795993   5.9301673  75.3455433  77.5945993   5.6401673
  75.8545433  88.3015993   8.4661673  75.9925433  89.0615993   8.0591673
  76.6455433  87.9365993   8.4931673  75.9915433  88.3605993   8.4101673
  76.9495433  86.1865993   2.9711673  77.2975433  85.3875993   3.0011673
  77.6145433  86.6905993   2.7161673  77.0995433  86.1425993   2.9381673
  69.2005433  79.8665993   3.3511673  68.9445433  80.6975993   3.2761673
  68.5365433  79.4835993   3.7681673  69.0645433  79.9325993   3.4021673
  72.2295433  74.6835993   3.8421673  71.7085433  74.0555993   3.5341673
  72.8205433  74.2465993   4.3131673  72.2405433  74.5255993   3.8661673
  75.5355433  76.8165993  13.1401673  75.6525433  76.3625993  12.4041673
  75.8235433  77.6145993  12.9371673  75.5955433  76.8675993  13.0011673
  71.2685433  76.4135993  12.1241673  70.4905433  76.0235993  12.0521673
  71.7595433  76.0015993  11.5331673  71.2255433  76.2945993  12.0261673
  71.4735433  86.7335993   2.6821673  71.8965433  86.3775993   2.0081673
  71.7975433  86.3115993   3.3741673  71.5835433  86.6185993   2.6851673
  77.9175433  74.0565993  11.2921673  78.0955433  73.2475993  11.0171673
  77.7745433  74.4975993  10.5531673  77.9225433  74.0025993  11.1421673
  68.6165433  76.9615993   9.7101673  68.6125433  77.5485993  10.3561673
  69.2105433  77.2735993   9.1531673  68.7035433  77.0945993   9.7231673
  71.6955433  88.9665993   6.8401673  70.9975433  88.4585993   6.9661673
  71.9555433  88.7615993   6.0321673  71.6305433  88.8615993   6.7391673
  73.0565433  87.8175993   9.4071673  73.8975433  87.8805993   9.1851673
  73.0195433  88.2145993  10.1831673  73.1755433  87.8855993   9.4891673
  75.0195433  83.3285993   4.1561673  75.1915433  83.1185993   4.9851673
  74.3645433  82.7945993   3.9401673  74.9485433  83.2185993   4.2471673
  75.7695433  83.2665993   6.7461673  75.8225433  84.1135993   6.9481673
  75.4845433  82.8965993   7.4831673  75.7355433  83.3365993   6.8841673
  68.5905433  87.6375993  12.9571673  69.3465433  87.9865993  13.2151673
  68.7675433  86.7845993  12.9001673  68.7285433  87.5625993  12.9871673
  70.6525433  77.8075993   4.8671673  71.4955433  78.0275993   4.8241673
  70.2635433  78.3805993   4.3361673  70.7195433  77.9245993   4.7821673
  68.8595433  85.7825993   2.8891673  68.1925433  86.2705993   3.1651673
  69.5395433  86.3275993   2.9181673  68.8615433  85.9345993   2.9341673
  76.5065433  79.4925993  12.9851673  76.0225433  80.0695993  13.4271673
  76.4785433  79.7875993  12.1641673  76.4305433  79.6215993  12.9291673
  73.3015433  85.6305993   4.6561673  73.7685433  85.9195993   5.3341673
  73.8735433  85.1525993   4.2021673  73.4555433  85.6025993   4.6891673
  69.8675433  83.3005993   3.2001673  70.2985433  83.1715993   2.4531673
  69.6625433  84.1485993   3.1741673  69.9005433  83.4065993   3.0861673
  72.0815433  80.2995993  11.3441673  71.5455433  79.7935993  11.8121673
  72.1015433  79.9095993  10.5641673  72.0045433  80.1665993  11.2981673
  72.7335433  81.5265993   3.0831673  71.9525433  81.4675993   2.7001673
  72.8055433  80.7745993   3.5201673  72.6285433  81.4075993   3.0911673
  73.1635433  81.2635993   6.5511673  73.1885433  80.5885993   6.0001673
  72.5175433  81.7595993   6.2391673  73.0725433  81.2365993   6.4241673
  70.9625433  82.6185993  12.1101673  70.9255433  83.1195993  11.3961673
  71.2935433  81.8665993  11.8151673  71.0055433  82.5805993  11.9611673
  76.8615433  87.6685993  11.5451673  77.2155433  87.4905993  12.3221673
  76.4255433  86.9395993  11.3461673  76.8495433  87.5345993  11.6311673
  77.8335433  78.4155993   4.1831673  78.3135433  79.1145993   4.3911673
  78.2065433  77.7685993   4.6341673  77.9595433  78.4235993   4.2801673
  77.6505433  83.6225993   3.2171673  76.8035433  83.4285993   3.2981673
  77.9745433  83.4575993   4.0101673  77.5725433  83.5695993   3.3461673
  71.4985433  83.3155993   5.5331673  72.2205433  83.8035993   5.4961673
  71.2285433  83.2855993   4.7041673  71.5655433  83.3835993   5.4051673
  74.7285433  78.4865993   2.2681673  75.5745433  78.2965993   2.3661673
  74.3585433  77.7095993   2.1301673  74.7985433  78.3435993   2.2621673
  70.8935433  84.3675993   9.8111673  70.4725433  83.8495993   9.2501673
  70.5415433  85.1535993   9.6681673  70.7795433  84.4075993   9.7071673
  69.0095433  75.6895993   3.6551673  69.0535433  76.0335993   2.8541673
  69.7645433  75.9265993   4.0221673  69.1275433  75.7755993   3.5911673
  75.6325433  86.1785993   6.4291673  75.3345433  86.7705993   6.9961673
  75.6875433  86.6205993   5.6801673  75.5965433  86.3315993   6.4021673
  73.6115433  85.1285993   9.8271673  72.8055433  84.8385993   9.9941673
  73.5225433  85.9965993   9.8331673  73.4795433  85.2135993   9.8521673
  74.8585433  78.2045993   8.6611673  75.0195433  77.4605993   9.0881673
  74.8135433  77.9555993   7.8261673  74.8755433  78.0575993   8.6011673
  76.6105433  74.0125993   8.5411673  77.3155433  74.3325993   8.1391673
  76.8515433  73.2055993   8.7681673  76.7495433  73.9405993   8.5151673
  75.5955433  88.2225993   4.5371673  74.9715433  88.8045993   4.3551673
  75.8435433  87.9365993   3.7511673  75.5395433  88.2665993   4.3941673
  73.1195433  79.0655993   4.6021673  73.5595433  78.9625993   3.8561673
  73.6645433  78.7525993   5.2071673  73.2645433  79.0045993   4.5811673
  76.6665433  74.0505993   4.6491673  75.8405433  73.9015993   4.8861673
  76.6265433  74.0855993   3.7781673  76.5385433  74.0335993   4.5551673
  78.3075433  85.0905993   9.4371673  77.5125433  85.0265993   9.7881673
  78.3785433  85.9375993   9.2421673  78.2005433  85.2055993   9.4601673
  69.2315433  74.4485993  10.6841673  69.0915433  75.2435993  10.3531673
  68.4455433  74.2055993  10.9731673  69.0945433  74.5305993  10.6781673
  72.2725433  79.2035993   8.3251673  72.6475433  79.8225993   7.8381673
  72.9465433  78.7295993   8.6101673  72.4275433  79.2255993   8.2951673
  70.0475433  77.6515993   7.6001673  70.1245433  77.4825993   6.7471673
  70.7935433  78.0575993   7.7971673  70.1685433  77.6865993   7.5031673
  72.6015433  75.0615993  10.0111673  72.5205433  74.2175993  10.2171673
  72.2875433  75.1055993   9.1981673  72.5435433  74.9435993   9.9211673
  69.4445433  82.8775993   7.8241673  69.7645433  83.0965993   7.0431673
  69.3445433  82.0125993   7.7691673  69.4765433  82.7825993   7.7011673
  74.2075433  82.1695993   9.2091673  73.8115433  82.9435993   9.2841673
  73.8015433  81.7965993   8.5331673  74.0895433  82.2285993   9.1201673
  74.6365433  75.1465993   6.6591673  73.7725433  75.2305993   6.7391673
  74.8565433  74.6325993   7.3281673  74.5415433  75.0835993   6.7701673
  76.2425433  80.2235993  10.2371673  75.9205433  79.6475993   9.6671673
  75.8835433  80.9785993   9.9911673  76.1425433  80.2495993  10.1171673
  71.8565433  75.2295993   7.3071673  71.5135433  74.4625993   7.0731673
  71.1615433  75.7535993   7.3711673  71.7035433  75.1935993   7.2821673
  70.1975433  86.9515993   8.7741673  69.6235433  87.3675993   9.2831673
  70.9305433  87.4165993   8.8691673  70.2215433  87.0815993   8.8631673
  75.2895433  75.5905993  10.3931673  75.5235433  75.0145993   9.7801673
  74.4475433  75.4095993  10.5341673  75.1995433  75.4785993  10.3231673
  69.3585433  66.3714913  75.9061313  68.9175433  66.4894913  76.6491313
  69.0755433  65.5964913  75.6211313  69.2515433  66.2744913  75.9741313
  69.1015433  60.1634913  72.4131313  68.3235433  60.3254913  72.0531313
  69.1405433  59.2924913  72.4351313  68.9925433  60.0584913  72.3631313
  72.2405433  65.4264913  71.0851313  71.8485433  65.0554913  70.3991313
  72.1605433  64.8284913  71.7141313  72.1705433  65.2834913  71.0761313
  71.8675433  67.0674913  74.9851313  72.4755433  66.8974913  75.5881313
  71.1165433  66.9274913  75.4061313  71.8465433  67.0214913  75.1361313
  76.1495433  56.4024913  74.9341313  76.0795433  57.0794913  74.3881313
  76.8905433  56.0144913  74.6851313  76.2485433  56.4454913  74.8161313
  70.7585433  70.1584913  71.0621313  71.2255433  70.2424913  70.3301313
  71.2135433  69.5804913  71.5311313  70.8945433  70.0854913  71.0231313
  70.7445433  63.6274913  76.3631313  70.2825433  63.2354913  75.7361313
  71.4445433  63.1144913  76.4551313  70.7795433  63.4944913  76.2841313
  72.7455433  61.7274913  76.3861313  73.5625433  61.5404913  76.6291313
  72.2685433  61.1134913  76.7821313  72.7955433  61.6094913  76.4811313
  76.9495433  67.7084913  78.9961313  77.2975433  66.9094913  79.0261313
  77.6145433  68.2124913  78.7411313  77.0995433  67.6644913  78.9631313
  77.0065433  67.1574913  75.2071313  77.3375433  66.5134913  75.6931313
  77.2465433  66.9464913  74.3961313  77.0905433  67.0314913  75.1591313
  73.3425433  56.8214913  75.6521313  73.0465433  57.3224913  75.0021313
  74.2095433  56.8994913  75.5951313  73.4265433  56.9074913  75.5481313
  76.3215433  55.9634913  77.8751313  76.3945433  56.8234913  78.0041313
  76.2835433  55.8884913  77.0071313  76.3265433  56.0794913  77.7661313
  69.2005433  61.3884913  79.3761313  68.9445433  62.2194913  79.3011313
  68.5365433  61.0054913  79.7931313  69.0645433  61.4544913  79.4271313
  69.1105433  71.0984913  77.2761313  68.5185433  71.6564913  76.9631313
  69.5365433  70.8294913  76.5641313  69.0865433  71.1404913  77.1251313
  74.9505433  68.9424913  74.7561313  74.3715433  68.6674913  75.3481313
  75.5745433  68.3334913  74.7811313  74.9575433  68.8124913  74.8471313
  72.2295433  56.2054913  79.8671313  71.7085433  55.5774913  79.5591313
  72.8205433  55.7684913  80.3381313  72.2405433  56.0474913  79.8911313
  70.6555433  69.7684913  75.2071313  71.3115433  69.1934913  75.2221313
  71.0445433  70.5174913  74.9861313  70.8105433  69.7934913  75.1771313
  71.4735433  68.2554913  78.7071313  71.8965433  67.8994913  78.0331313
  71.7975433  67.8334913  79.3991313  71.5835433  68.1404913  78.7101313
  74.7045433  71.1074913  78.0031313  75.5485433  71.2114913  77.8081313
  74.4075433  71.9254913  78.0711313  74.7855433  71.2434913  77.9841313
  69.5535433  58.0784913  74.6501313  69.4395433  57.2144913  74.6811313
  69.0785433  58.3724913  75.3201313  69.4665433  57.9944913  74.7531313
  77.4555433  58.5944913  77.8081313  77.5295433  59.1624913  77.1501313
  77.5765433  59.0864913  78.5181313  77.4835433  58.7514913  77.8161313
  72.0635433  54.4174913  76.1561313  72.5995433  55.1054913  76.1461313
  72.0665433  54.1434913  75.3281313  72.1425433  54.4784913  76.0321313
  75.0195433  64.8504913  80.1811313  75.1915433  64.6404913  81.0101313
  74.3645433  64.3164913  79.9651313  74.9485433  64.7404913  80.2721313
  72.5115433  58.2274913  77.8101313  72.7835433  57.7974913  77.1021313
  72.3355433  57.5914913  78.3811313  72.5255433  58.0704913  77.7901313
  72.3355433  65.6544913  77.3591313  73.1865433  65.5744913  77.1861313
  71.9785433  64.9724913  76.9471313  72.4085433  65.5414913  77.2721313
  71.1025433  72.3794913  78.5961313  70.4295433  71.8814913  78.3511313
  71.5055433  72.5644913  77.8451313  71.0625433  72.3334913  78.4491313
  70.6525433  59.3294913  80.8921313  71.4955433  59.5494913  80.8491313
  70.2635433  59.9024913  80.3611313  70.7195433  59.4464913  80.8071313
  74.7035433  65.6614913  75.5941313  75.4165433  66.1564913  75.6841313
  74.9255433  65.0944913  74.9681313  74.8415433  65.6504913  75.5151313
  68.8595433  67.3044913  78.9141313  68.1925433  67.7924913  79.1901313
  69.5395433  67.8494913  78.9431313  68.8615433  67.4564913  78.9591313
  68.9255433  63.9884913  74.0171313  68.7405433  63.1494913  74.1691313
  69.5845433  63.9524913  73.4471313  68.9955433  63.8594913  73.9551313
  69.0975433  68.1524913  73.5921313  69.6495433  68.7214913  73.9561313
  68.8655433  67.6374913  74.2571313  69.1445433  68.1604913  73.7441313
  73.3015433  67.1524913  80.6811313  73.7685433  67.4414913  81.3591313
  73.8735433  66.6744913  80.2271313  73.4555433  67.1244913  80.7141313
  68.9275433  66.6014913  71.2201313  69.6835433  66.1694913  71.2781313
  68.9425433  67.1334913  71.9111313  69.0415433  66.6164913  71.3311313
  69.8675433  64.8224913  79.2251313  70.2985433  64.6934913  78.4781313
  69.6625433  65.6704913  79.1991313  69.9005433  64.9284913  79.1111313
  76.2135433  58.3864913  72.8751313  76.2115433  58.2694913  72.0101313
  76.0325433  59.2344913  72.9671313  76.1865433  58.4944913  72.7611313
  73.9515433  68.3384913  77.5071313  74.0775433  69.1814913  77.6941313
  74.6195433  67.9394913  77.9031313  74.0695433  68.4044913  77.5931313
  72.5665433  61.2184913  72.5091313  72.4385433  60.7704913  73.2471313
  71.9845433  60.8764913  71.9571313  72.4615433  61.1014913  72.5371313
  72.7335433  63.0484913  79.1081313  71.9525433  62.9894913  78.7251313
  72.8055433  62.2964913  79.5451313  72.6285433  62.9294913  79.1161313
  77.8335433  59.9374913  80.2081313  78.3135433  60.6364913  80.4161313
  78.2065433  59.2904913  80.6591313  77.9595433  59.9454913  80.3051313
  74.9445433  71.7054913  74.1551313  74.7975433  70.9294913  74.5261313
  75.6335433  71.5584913  73.6401313  75.0245433  71.5684913  74.1341313
  74.6155433  55.4484913  72.1431313  74.7125433  55.3414913  73.0041313
  73.9075433  55.9544913  72.0781313  74.5255433  55.5074913  72.2611313
  77.2365433  71.2214913  72.5571313  77.8585433  71.3844913  73.1471313
  77.2725433  71.9124913  72.0251313  77.3335433  71.3474913  72.5661313
  71.7375433  63.7554913  73.3861313  72.0615433  62.9764913  73.1641313
  72.3835433  64.1234913  73.8411313  71.8805433  63.6944913  73.4201313
  68.7345433  55.4164913  74.3541313  68.8635433  54.7084913  73.8621313
  68.3675433  55.0984913  75.0791313  68.6995433  55.2644913  74.3891313
  78.4275433  63.0974913  74.8111313  78.4865433  63.7474913  75.3901313
  78.2385433  62.4014913  75.3021313  78.4085433  63.0904913  74.9691313
  72.9235433  57.6144913  71.3231313  72.4125433  57.6674913  70.6171313
  73.7075433  57.8544913  71.0271313  72.9635433  57.6574913  71.1751313
  77.6505433  65.1444913  79.2421313  76.8035433  64.9504913  79.3231313
  77.9745433  64.9794913  80.0351313  77.5725433  65.0914913  79.3711313
  74.4025433  71.8744913  70.1281313  74.8415433  71.1774913  70.4161313
  74.6095433  72.4984913  70.7011313  74.4985433  71.8634913  70.2551313
  71.4985433  64.8374913  81.5581313  72.2205433  65.3254913  81.5211313
  71.2285433  64.8074913  80.7291313  71.5655433  64.9054913  81.4301313
  74.7285433  60.0084913  78.2931313  75.5745433  59.8184913  78.3911313
  74.3585433  59.2314913  78.1551313  74.7985433  59.8654913  78.2871313
  69.5495433  61.3464913  74.9481313  70.0385433  61.0544913  75.6091313
  69.6785433  60.7534913  74.3211313  69.6405433  61.2154913  74.9531313
  74.0745433  62.7804913  70.4341313  73.4645433  62.3754913  70.9081313
  73.6885433  62.8984913  69.6611313  73.9275433  62.7374913  70.3901313
  75.5295433  61.2414913  73.1441313  75.8015433  62.0674913  73.2111313
  74.6665433  61.3164913  73.0481313  75.4425433  61.3744913  73.1391313
  69.0095433  57.2114913  79.6801313  69.0535433  57.5554913  78.8791313
  69.7645433  57.4484913  80.0471313  69.1275433  57.2974913  79.6161313
  77.4125433  71.5164913  77.1731313  77.9585433  72.1954913  77.2271313
  77.0625433  71.5984913  76.3781313  77.4415433  71.6294913  77.0631313
  75.5955433  69.7444913  80.5621313  74.9715433  70.3264913  80.3801313
  75.8435433  69.4584913  79.7761313  75.5395433  69.7884913  80.4191313
  77.1895433  64.5204913  70.4771313  76.3845433  64.3434913  70.1921313
  77.1565433  65.3714913  70.6691313  77.0655433  64.6194913  70.4641313
  73.1195433  60.5874913  80.6271313  73.5595433  60.4844913  79.8811313
  73.6645433  60.2744913  81.2321313  73.2645433  60.5264913  80.6061313
  76.6665433  55.5724913  80.6741313  75.8405433  55.4234913  80.9111313
  76.6265433  55.6074913  79.8031313  76.5385433  55.5554913  80.5801313
  72.2955433  58.7144913  73.9341313  72.4215433  58.3854913  73.1361313
  71.4835433  58.4654913  74.1331313  72.1945433  58.6294913  73.8461313
  70.9005433  60.3354913  70.4671313  70.2285433  60.3494913  71.0231313
  70.9955433  59.4874913  70.2831313  70.8155433  60.2124913  70.5221313
  74.8885433  69.0404913  71.5811313  75.3295433  69.1204913  72.3291313
  74.0835433  68.8244913  71.8391313  74.8345433  69.0204913  71.7301313
  72.2175433  68.1104913  72.1821313  71.9735433  67.8034913  72.9621313
  72.1845433  67.4074913  71.6661313  72.1765433  67.9614913  72.2211313
  75.0365433  66.3554913  70.9251313  74.2185433  66.0874913  71.0651313
  75.0085433  67.2074913  71.1101313  74.9115433  66.4424913  70.9731313
  77.0385433  54.9974913  70.8891313  77.1165433  55.2444913  70.0561313
  76.2955433  55.3744913  71.1471313  76.9405433  55.0894913  70.8041313
  70.5095433  60.0654913  77.2881313  70.1415433  60.3674913  78.0191313
  71.0435433  59.4364913  77.5721313  70.5335433  60.0174913  77.4381313
  71.9835433  71.7404913  73.5741313  71.8385433  71.8964913  72.7281313
  72.8495433  71.8194913  73.6521313  72.0905433  71.7754913  73.4611313
  76.1505433  64.1374913  73.3021313  76.2505433  64.2764913  72.4471313
  76.9685433  64.0774913  73.5981313  76.2855433  64.1484913  73.2191313
  72.6705433  70.5554913  80.0511313  72.5915433  69.7454913  79.7351313
  72.2265433  71.0424913  79.4791313  72.5935433  70.5074913  79.9201313
  69.3585433  66.3714913  56.8998903  68.9175433  66.4894913  57.6428903
  69.0755433  65.5964913  56.6148903  69.2515433  66.2744913  56.9678903
  69.1015433  60.1634913  53.4068903  68.3235433  60.3254913  53.0468903
  69.1405433  59.2924913  53.4288903  68.9925433  60.0584913  53.3568903
  72.2405433  65.4264913  52.0788903  71.8485433  65.0554913  51.3928903
  72.1605433  64.8284913  52.7078903  72.1705433  65.2834913  52.0698903
  71.8675433  67.0674913  55.9788903  72.4755433  66.8974913  56.5818903
  71.1165433  66.9274913  56.3998903  71.8465433  67.0214913  56.1298903
  76.1495433  56.4024913  55.9278903  76.0795433  57.0794913  55.3818903
  76.8905433  56.0144913  55.6788903  76.2485433  56.4454913  55.8098903
  70.7585433  70.1584913  52.0558903  71.2255433  70.2424913  51.3238903
  71.2135433  69.5804913  52.5248903  70.8945433  70.0854913  52.0168903
  69.2985433  69.1064913  63.1548903  69.4275433  68.8264913  63.9708903
  68.6885433  68.5654913  62.8458903  69.2275433  68.9854913  63.2298903
  75.8725433  66.6314913  68.2218903  75.6365433  66.6284913  69.0618903
  75.1245433  66.4834913  67.7978903  75.7265433  66.6084913  68.2828903
  70.7445433  63.6274913  57.3568903  70.2825433  63.2354913  56.7298903
  71.4445433  63.1144913  57.4488903  70.7795433  63.4944913  57.2778903
  75.2525433  59.2374913  62.7038903  75.9305433  59.2554913  62.1548903
  75.2075433  58.4014913  62.9488903  75.3455433  59.1164913  62.6588903
  75.8545433  69.8234913  65.4848903  75.9925433  70.5834913  65.0778903
  76.6455433  69.4584913  65.5118903  75.9915433  69.8824913  65.4288903
  72.7455433  61.7274913  57.3798903  73.5625433  61.5404913  57.6228903
  72.2685433  61.1134913  57.7758903  72.7955433  61.6094913  57.4748903
  76.9495433  67.7084913  59.9898903  77.2975433  66.9094913  60.0198903
  77.6145433  68.2124913  59.7348903  77.0995433  67.6644913  59.9568903
  77.0065433  67.1574913  56.2008903  77.3375433  66.5134913  56.6868903
  77.2465433  66.9464913  55.3898903  77.0905433  67.0314913  56.1528903
  73.3425433  56.8214913  56.6458903  73.0465433  57.3224913  55.9958903
  74.2095433  56.8994913  56.5888903  73.4265433  56.9074913  56.5418903
  76.3215433  55.9634913  58.8688903  76.3945433  56.8234913  58.9978903
  76.2835433  55.8884913  58.0008903  76.3265433  56.0794913  58.7598903
  69.2005433  61.3884913  60.3698903  68.9445433  62.2194913  60.2948903
  68.5365433  61.0054913  60.7868903  69.0645433  61.4544913  60.4208903
  69.1105433  71.0984913  58.2698903  68.5185433  71.6564913  57.9568903
  69.5365433  70.8294913  57.5578903  69.0865433  71.1404913  58.1188903
  74.9505433  68.9424913  55.7498903  74.3715433  68.6674913  56.3418903
  75.5745433  68.3334913  55.7748903  74.9575433  68.8124913  55.8408903
  72.2295433  56.2054913  60.8608903  71.7085433  55.5774913  60.5528903
  72.8205433  55.7684913  61.3318903  72.2405433  56.0474913  60.8848903
  75.5355433  58.3384913  70.1588903  75.6525433  57.8844913  69.4228903
  75.8235433  59.1364913  69.9558903  75.5955433  58.3894913  70.0198903
  70.6555433  69.7684913  56.2008903  71.3115433  69.1934913  56.2158903
  71.0445433  70.5174913  55.9798903  70.8105433  69.7934913  56.1708903
  71.2685433  57.9354913  69.1428903  70.4905433  57.5454913  69.0708903
  71.7595433  57.5234913  68.5518903  71.2255433  57.8164913  69.0448903
  71.4735433  68.2554913  59.7008903  71.8965433  67.8994913  59.0268903
  71.7975433  67.8334913  60.3928903  71.5835433  68.1404913  59.7038903
  74.7045433  71.1074913  58.9968903  75.5485433  71.2114913  58.8018903
  74.4075433  71.9254913  59.0648903  74.7855433  71.2434913  58.9778903
  77.9175433  55.5784913  68.3108903  78.0955433  54.7694913  68.0358903
  77.7745433  56.0194913  67.5718903  77.9225433  55.5244913  68.1608903
  73.7025433  72.3264913  64.7368903  73.9945433  72.2594913  65.5568903
  73.0765433  71.7214913  64.6918903  73.6535433  72.2274913  64.8518903
  68.6165433  58.4834913  66.7288903  68.6125433  59.0704913  67.3748903
  69.2105433  58.7954913  66.1718903  68.7035433  58.6164913  66.7418903
  69.5535433  58.0784913  55.6438903  69.4395433  57.2144913  55.6748903
  69.0785433  58.3724913  56.3138903  69.4665433  57.9944913  55.7468903
  71.6955433  70.4884913  63.8588903  70.9975433  69.9804913  63.9848903
  71.9555433  70.2834913  63.0508903  71.6305433  70.3834913  63.7578903
  77.4555433  58.5944913  58.8018903  77.5295433  59.1624913  58.1438903
  77.5765433  59.0864913  59.5118903  77.4835433  58.7514913  58.8098903
  73.0565433  69.3394913  66.4258903  73.8975433  69.4024913  66.2038903
  73.0195433  69.7364913  67.2018903  73.1755433  69.4074913  66.5078903
  72.0635433  54.4174913  57.1498903  72.5995433  55.1054913  57.1398903
  72.0665433  54.1434913  56.3218903  72.1425433  54.4784913  57.0258903
  75.0195433  64.8504913  61.1748903  75.1915433  64.6404913  62.0038903
  74.3645433  64.3164913  60.9588903  74.9485433  64.7404913  61.2658903
  75.7695433  64.7884913  63.7648903  75.8225433  65.6354913  63.9668903
  75.4845433  64.4184913  64.5018903  75.7355433  64.8584913  63.9028903
  68.5905433  69.1594913  69.9758903  69.3465433  69.5084913  70.2338903
  68.7675433  68.3064913  69.9188903  68.7285433  69.0844913  70.0058903
  72.5115433  58.2274913  58.8038903  72.7835433  57.7974913  58.0958903
  72.3355433  57.5914913  59.3748903  72.5255433  58.0704913  58.7838903
  72.3355433  65.6544913  58.3528903  73.1865433  65.5744913  58.1798903
  71.9785433  64.9724913  57.9408903  72.4085433  65.5414913  58.2658903
  71.1025433  72.3794913  59.5898903  70.4295433  71.8814913  59.3448903
  71.5055433  72.5644913  58.8388903  71.0625433  72.3334913  59.4428903
  70.6525433  59.3294913  61.8858903  71.4955433  59.5494913  61.8428903
  70.2635433  59.9024913  61.3548903  70.7195433  59.4464913  61.8008903
  74.7035433  65.6614913  56.5878903  75.4165433  66.1564913  56.6778903
  74.9255433  65.0944913  55.9618903  74.8415433  65.6504913  56.5088903
  68.8595433  67.3044913  59.9078903  68.1925433  67.7924913  60.1838903
  69.5395433  67.8494913  59.9368903  68.8615433  67.4564913  59.9528903
  76.5065433  61.0144913  70.0038903  76.0225433  61.5914913  70.4458903
  76.4785433  61.3094913  69.1828903  76.4305433  61.1434913  69.9478903
  68.9255433  63.9884913  55.0108903  68.7405433  63.1494913  55.1628903
  69.5845433  63.9524913  54.4408903  68.9955433  63.8594913  54.9488903
  69.0975433  68.1524913  54.5858903  69.6495433  68.7214913  54.9498903
  68.8655433  67.6374913  55.2508903  69.1445433  68.1604913  54.7378903
  73.3015433  67.1524913  61.6748903  73.7685433  67.4414913  62.3528903
  73.8735433  66.6744913  61.2208903  73.4555433  67.1244913  61.7078903
  69.8675433  64.8224913  60.2188903  70.2985433  64.6934913  59.4718903
  69.6625433  65.6704913  60.1928903  69.9005433  64.9284913  60.1048903
  76.2135433  58.3864913  53.8688903  76.2115433  58.2694913  53.0038903
  76.0325433  59.2344913  53.9608903  76.1865433  58.4944913  53.7548903
  73.9515433  68.3384913  58.5008903  74.0775433  69.1814913  58.6878903
  74.6195433  67.9394913  58.8968903  74.0695433  68.4044913  58.5868903
  72.0815433  61.8214913  68.3628903  71.5455433  61.3154913  68.8308903
  72.1015433  61.4314913  67.5828903  72.0045433  61.6884913  68.3168903
  72.5665433  61.2184913  53.5028903  72.4385433  60.7704913  54.2408903
  71.9845433  60.8764913  52.9508903  72.4615433  61.1014913  53.5308903
  72.7335433  63.0484913  60.1018903  71.9525433  62.9894913  59.7188903
  72.8055433  62.2964913  60.5388903  72.6285433  62.9294913  60.1098903
  73.1635433  62.7854913  63.5698903  73.1885433  62.1104913  63.0188903
  72.5175433  63.2814913  63.2578903  73.0725433  62.7584913  63.4428903
  77.2635433  71.5624913  62.9618903  76.9865433  70.9214913  62.4388903
  77.0555433  72.2884913  62.5238903  77.1925433  71.5754913  62.8198903
  70.9625433  64.1404913  69.1288903  70.9255433  64.6414913  68.4148903
  71.2935433  63.3884913  68.8338903  71.0055433  64.1024913  68.9798903
  76.8615433  69.1904913  68.5638903  77.2155433  69.0124913  69.3408903
  76.4255433  68.4614913  68.3648903  76.8495433  69.0564913  68.6498903
  77.8335433  59.9374913  61.2018903  78.3135433  60.6364913  61.4098903
  78.2065433  59.2904913  61.6528903  77.9595433  59.9454913  61.2988903
  74.9445433  71.7054913  55.1488903  74.7975433  70.9294913  55.5198903
  75.6335433  71.5584913  54.6338903  75.0245433  71.5684913  55.1278903
  74.6155433  55.4484913  53.1368903  74.7125433  55.3414913  53.9978903
  73.9075433  55.9544913  53.0718903  74.5255433  55.5074913  53.2548903
  77.2365433  71.2214913  53.5508903  77.8585433  71.3844913  54.1408903
  77.2725433  71.9124913  53.0188903  77.3335433  71.3474913  53.5598903
  71.7375433  63.7554913  54.3798903  72.0615433  62.9764913  54.1578903
  72.3835433  64.1234913  54.8348903  71.8805433  63.6944913  54.4138903
  68.7345433  55.4164913  55.3478903  68.8635433  54.7084913  54.8558903
  68.3675433  55.0984913  56.0728903  68.6995433  55.2644913  55.3828903
  78.4275433  63.0974913  55.8048903  78.4865433  63.7474913  56.3838903
  78.2385433  62.4014913  56.2958903  78.4085433  63.0904913  55.9628903
  72.9235433  57.6144913  52.3168903  72.4125433  57.6674913  51.6108903
  73.7075433  57.8544913  52.0208903  72.9635433  57.6574913  52.1688903
  77.6505433  65.1444913  60.2358903  76.8035433  64.9504913  60.3168903
  77.9745433  64.9794913  61.0288903  77.5725433  65.0914913  60.3648903
  74.4025433  71.8744913  51.1218903  74.8415433  71.1774913  51.4098903
  74.6095433  72.4984913  51.6948903  74.4985433  71.8634913  51.2488903
  71.4985433  64.8374913  62.5518903  72.2205433  65.3254913  62.5148903
  71.2285433  64.8074913  61.7228903  71.5655433  64.9054913  62.4238903
  74.7285433  60.0084913  59.2868903  75.5745433  59.8184913  59.3848903
  74.3585433  59.2314913  59.1488903  74.7985433  59.8654913  59.2808903
  69.5495433  61.3464913  55.9418903  70.0385433  61.0544913  56.6028903
  69.6785433  60.7534913  55.3148903  69.6405433  61.2154913  55.9468903
  74.0745433  62.7804913  51.4278903  73.4645433  62.3754913  51.9018903
  73.6885433  62.8984913  50.6548903  73.9275433  62.7374913  51.3838903
  70.8935433  65.8894913  66.8298903  70.4725433  65.3714913  66.2688903
  70.5415433  66.6754913  66.6868903  70.7795433  65.9294913  66.7258903
  75.5295433  61.2414913  54.1378903  75.8015433  62.0674913  54.2048903
  74.6665433  61.3164913  54.0418903  75.4425433  61.3744913  54.1328903
  69.0095433  57.2114913  60.6738903  69.0535433  57.5554913  59.8728903
  69.7645433  57.4484913  61.0408903  69.1275433  57.2974913  60.6098903
  75.6325433  67.7004913  63.4478903  75.3345433  68.2924913  64.0148903
  75.6875433  68.1424913  62.6988903  75.5965433  67.8534913  63.4208903
  73.6115433  66.6504913  66.8458903  72.8055433  66.3604913  67.0128903
  73.5225433  67.5184913  66.8518903  73.4795433  66.7354913  66.8708903
  74.8585433  59.7264913  65.6798903  75.0195433  58.9824913  66.1068903
  74.8135433  59.4774913  64.8448903  74.8755433  59.5794913  65.6198903
  77.4125433  71.5164913  58.1668903  77.9585433  72.1954913  58.2208903
  77.0625433  71.5984913  57.3718903  77.4415433  71.6294913  58.0568903
  76.6105433  55.5344913  65.5598903  77.3155433  55.8544913  65.1578903
  76.8515433  54.7274913  65.7868903  76.7495433  55.4624913  65.5338903
  75.5955433  69.7444913  61.5558903  74.9715433  70.3264913  61.3738903
  75.8435433  69.4584913  60.7698903  75.5395433  69.7884913  61.4128903
  77.1895433  64.5204913  51.4708903  76.3845433  64.3434913  51.1858903
  77.1565433  65.3714913  51.6628903  77.0655433  64.6194913  51.4578903
  73.1195433  60.5874913  61.6208903  73.5595433  60.4844913  60.8748903
  73.6645433  60.2744913  62.2258903  73.2645433  60.5264913  61.5998903
  76.6665433  55.5724913  61.6678903  75.8405433  55.4234913  61.9048903
  76.6265433  55.6074913  60.7968903  76.5385433  55.5554913  61.5738903
  78.3075433  66.6124913  66.4558903  77.5125433  66.5484913  66.8068903
  78.3785433  67.4594913  66.2608903  78.2005433  66.7274913  66.4788903
  69.2315433  55.9704913  67.7028903  69.0915433  56.7654913  67.3718903
  68.4455433  55.7274913  67.9918903  69.0945433  56.0524913  67.6968903
  74.1375433  72.8194913  61.7728903  74.1485433  72.8784913  62.6428903
  73.7125433  72.0724913  61.6228903  74.0765433  72.7174913  61.8788903
  72.2955433  58.7144913  54.9278903  72.4215433  58.3854913  54.1298903
  71.4835433  58.4654913  55.1268903  72.1945433  58.6294913  54.8398903
  70.9015433  72.3174913  67.2148903  70.2475433  71.7484913  67.3128903
  70.5265433  73.0904913  67.3658903  70.7495433  72.3474913  67.2518903
  72.2725433  60.7254913  65.3438903  72.6475433  61.3444913  64.8568903
  72.9465433  60.2514913  65.6288903  72.4275433  60.7474913  65.3138903
  70.0475433  59.1734913  64.6188903  70.1245433  59.0044913  63.7658903
  70.7935433  59.5794913  64.8158903  70.1685433  59.2084913  64.5218903
  72.6015433  56.5834913  67.0298903  72.5205433  55.7394913  67.2358903
  72.2875433  56.6274913  66.2168903  72.5435433  56.4654913  66.9398903
  69.4445433  64.3994913  64.8428903  69.7645433  64.6184913  64.0618903
  69.3445433  63.5344913  64.7878903  69.4765433  64.3044913  64.7198903
  70.9005433  60.3354913  51.4608903  70.2285433  60.3494913  52.0168903
  70.9955433  59.4874913  51.2768903  70.8155433  60.2124913  51.5158903
  74.8885433  69.0404913  52.5748903  75.3295433  69.1204913  53.3228903
  74.0835433  68.8244913  52.8328903  74.8345433  69.0204913  52.7238903
  74.2075433  63.6914913  66.2278903  73.8115433  64.4654913  66.3028903
  73.8015433  63.3184913  65.5518903  74.0895433  63.7504913  66.1388903
  72.2175433  68.1104913  53.1758903  71.9735433  67.8034913  53.9558903
  72.1845433  67.4074913  52.6598903  72.1765433  67.9614913  53.2148903
  75.0365433  66.3554913  51.9188903  74.2185433  66.0874913  52.0588903
  75.0085433  67.2074913  52.1038903  74.9115433  66.4424913  51.9668903
  74.6365433  56.6684913  63.6778903  73.7725433  56.7524913  63.7578903
  74.8565433  56.1544913  64.3468903  74.5415433  56.6054913  63.7888903
  76.2425433  61.7454913  67.2558903  75.9205433  61.1694913  66.6858903
  75.8835433  62.5004913  67.0098903  76.1425433  61.7714913  67.1358903
  77.0385433  54.9974913  51.8828903  77.1165433  55.2444913  51.0498903
  76.2955433  55.3744913  52.1408903  76.9405433  55.0894913  51.7978903
  74.6775433  72.1014913  67.5038903  74.7185433  72.2274913  68.3668903
  75.3285433  71.5414913  67.3478903  74.7795433  72.0374913  67.6088903
  71.8565433  56.7514913  64.3258903  71.5135433  55.9844913  64.0918903
  71.1615433  57.2754913  64.3898903  71.7035433  56.7154913  64.3008903
  72.2705433  70.4844913  68.8638903  72.8655433  70.9154913  69.3358903
  71.9065433  71.1084913  68.3748903  72.3045433  70.6404913  68.8608903
  70.5095433  60.0654913  58.2818903  70.1415433  60.3674913  59.0128903
  71.0435433  59.4364913  58.5658903  70.5335433  60.0174913  58.4318903
  70.1975433  68.4734913  65.7928903  69.6235433  68.8894913  66.3018903
  70.9305433  68.9384913  65.8878903  70.2215433  68.6034913  65.8818903
  71.9835433  71.7404913  54.5678903  71.8385433  71.8964913  53.7218903
  72.8495433  71.8194913  54.6458903  72.0905433  71.7754913  54.4548903
  76.1505433  64.1374913  54.2958903  76.2505433  64.2764913  53.4408903
  76.9685433  64.0774913  54.5918903  76.2855433  64.1484913  54.2128903
  75.2895433  57.1124913  67.4118903  75.5235433  56.5364913  66.7988903
  74.4475433  56.9314913  67.5528903  75.1995433  57.0004913  67.3418903
  72.6705433  70.5554913  61.0448903  72.5915433  69.7454913  60.7288903
  72.2265433  71.0424913  60.4728903  72.5935433  70.5074913  60.9138903
  70.2425433  72.7994913  64.6258903  70.7355433  72.7434913  65.3438903
  70.4305433  72.0664913  64.1908903  70.3435433  72.6824913  64.6678903
  69.3585433  66.3714913  37.8936493  68.9175433  66.4894913  38.6366493
  69.0755433  65.5964913  37.6086493  69.2515433  66.2744913  37.9616493
  69.1015433  60.1634913  34.4006493  68.3235433  60.3254913  34.0406493
  69.1405433  59.2924913  34.4226493  68.9925433  60.0584913  34.3506493
  72.2405433  65.4264913  33.0726493  71.8485433  65.0554913  32.3866493
  72.1605433  64.8284913  33.7016493  72.1705433  65.2834913  33.0636493
  71.8675433  67.0674913  36.9726493  72.4755433  66.8974913  37.5756493
  71.1165433  66.9274913  37.3936493  71.8465433  67.0214913  37.1236493
  76.1495433  56.4024913  36.9216493  76.0795433  57.0794913  36.3756493
  76.8905433  56.0144913  36.6726493  76.2485433  56.4454913  36.8036493
  70.7585433  70.1584913  33.0496493  71.2255433  70.2424913  32.3176493
  71.2135433  69.5804913  33.5186493  70.8945433  70.0854913  33.0106493
  69.2985433  69.1064913  44.1486493  69.4275433  68.8264913  44.9646493
  68.6885433  68.5654913  43.8396493  69.2275433  68.9854913  44.2236493
  75.8725433  66.6314913  49.2156493  75.6365433  66.6284913  50.0556493
  75.1245433  66.4834913  48.7916493  75.7265433  66.6084913  49.2766493
  70.7445433  63.6274913  38.3506493  70.2825433  63.2354913  37.7236493
  71.4445433  63.1144913  38.4426493  70.7795433  63.4944913  38.2716493
  75.2525433  59.2374913  43.6976493  75.9305433  59.2554913  43.1486493
  75.2075433  58.4014913  43.9426493  75.3455433  59.1164913  43.6526493
  75.8545433  69.8234913  46.4786493  75.9925433  70.5834913  46.0716493
  76.6455433  69.4584913  46.5056493  75.9915433  69.8824913  46.4226493
  72.7455433  61.7274913  38.3736493  73.5625433  61.5404913  38.6166493
  72.2685433  61.1134913  38.7696493  72.7955433  61.6094913  38.4686493
  76.9495433  67.7084913  40.9836493  77.2975433  66.9094913  41.0136493
  77.6145433  68.2124913  40.7286493  77.0995433  67.6644913  40.9506493
  77.0065433  67.1574913  37.1946493  77.3375433  66.5134913  37.6806493
  77.2465433  66.9464913  36.3836493  77.0905433  67.0314913  37.1466493
  73.3425433  56.8214913  37.6396493  73.0465433  57.3224913  36.9896493
  74.2095433  56.8994913  37.5826493  73.4265433  56.9074913  37.5356493
  76.3215433  55.9634913  39.8626493  76.3945433  56.8234913  39.9916493
  76.2835433  55.8884913  38.9946493  76.3265433  56.0794913  39.7536493
  69.2005433  61.3884913  41.3636493  68.9445433  62.2194913  41.2886493
  68.5365433  61.0054913  41.7806493  69.0645433  61.4544913  41.4146493
  69.1105433  71.0984913  39.2636493  68.5185433  71.6564913  38.9506493
  69.5365433  70.8294913  38.5516493  69.0865433  71.1404913  39.1126493
  74.9505433  68.9424913  36.7436493  74.3715433  68.6674913  37.3356493
  75.5745433  68.3334913  36.7686493  74.9575433  68.8124913  36.8346493
  72.2295433  56.2054913  41.8546493  71.7085433  55.5774913  41.5466493
  72.8205433  55.7684913  42.3256493  72.2405433  56.0474913  41.8786493
  75.5355433  58.3384913  51.1526493  75.6525433  57.8844913  50.4166493
  75.8235433  59.1364913  50.9496493  75.5955433  58.3894913  51.0136493
  70.6555433  69.7684913  37.1946493  71.3115433  69.1934913  37.2096493
  71.0445433  70.5174913  36.9736493  70.8105433  69.7934913  37.1646493
  71.2685433  57.9354913  50.1366493  70.4905433  57.5454913  50.0646493
  71.7595433  57.5234913  49.5456493  71.2255433  57.8164913  50.0386493
  71.4735433  68.2554913  40.6946493  71.8965433  67.8994913  40.0206493
  71.7975433  67.8334913  41.3866493  71.5835433  68.1404913  40.6976493
  74.7045433  71.1074913  39.9906493  75.5485433  71.2114913  39.7956493
  74.4075433  71.9254913  40.0586493  74.7855433  71.2434913  39.9716493
  77.9175433  55.5784913  49.3046493  78.0955433  54.7694913  49.0296493
  77.7745433  56.0194913  48.5656493  77.9225433  55.5244913  49.1546493
  73.7025433  72.3264913  45.7306493  73.9945433  72.2594913  46.5506493
  73.0765433  71.7214913  45.6856493  73.6535433  72.2274913  45.8456493
  68.6165433  58.4834913  47.7226493  68.6125433  59.0704913  48.3686493
  69.2105433  58.7954913  47.1656493  68.7035433  58.6164913  47.7356493
  69.5535433  58.0784913  36.6376493  69.4395433  57.2144913  36.6686493
  69.0785433  58.3724913  37.3076493  69.4665433  57.9944913  36.7406493
  71.6955433  70.4884913  44.8526493  70.9975433  69.9804913  44.9786493
  71.9555433  70.2834913  44.0446493  71.6305433  70.3834913  44.7516493
  77.4555433  58.5944913  39.7956493  77.5295433  59.1624913  39.1376493
  77.5765433  59.0864913  40.5056493  77.4835433  58.7514913  39.8036493
  73.0565433  69.3394913  47.4196493  73.8975433  69.4024913  47.1976493
  73.0195433  69.7364913  48.1956493  73.1755433  69.4074913  47.5016493
  72.0635433  54.4174913  38.1436493  72.5995433  55.1054913  38.1336493
  72.0665433  54.1434913  37.3156493  72.1425433  54.4784913  38.0196493
  75.0195433  64.8504913  42.1686493  75.1915433  64.6404913  42.9976493
  74.3645433  64.3164913  41.9526493  74.9485433  64.7404913  42.2596493
  75.7695433  64.7884913  44.7586493  75.8225433  65.6354913  44.9606493
  75.4845433  64.4184913  45.4956493  75.7355433  64.8584913  44.8966493
  72.5115433  58.2274913  39.7976493  72.7835433  57.7974913  39.0896493
  72.3355433  57.5914913  40.3686493  72.5255433  58.0704913  39.7776493
  72.3355433  65.6544913  39.3466493  73.1865433  65.5744913  39.1736493
  71.9785433  64.9724913  38.9346493  72.4085433  65.5414913  39.2596493
  71.1025433  72.3794913  40.5836493  70.4295433  71.8814913  40.3386493
  71.5055433  72.5644913  39.8326493  71.0625433  72.3334913  40.4366493
  70.6525433  59.3294913  42.8796493  71.4955433  59.5494913  42.8366493
  70.2635433  59.9024913  42.3486493  70.7195433  59.4464913  42.7946493
  74.7035433  65.6614913  37.5816493  75.4165433  66.1564913  37.6716493
  74.9255433  65.0944913  36.9556493  74.8415433  65.6504913  37.5026493
  68.8595433  67.3044913  40.9016493  68.1925433  67.7924913  41.1776493
  69.5395433  67.8494913  40.9306493  68.8615433  67.4564913  40.9466493
  76.5065433  61.0144913  50.9976493  76.0225433  61.5914913  51.4396493
  76.4785433  61.3094913  50.1766493  76.4305433  61.1434913  50.9416493
  68.9255433  63.9884913  36.0046493  68.7405433  63.1494913  36.1566493
  69.5845433  63.9524913  35.4346493  68.9955433  63.8594913  35.9426493
  73.3015433  67.1524913  42.6686493  73.7685433  67.4414913  43.3466493
  73.8735433  66.6744913  42.2146493  73.4555433  67.1244913  42.7016493
  68.9275433  66.6014913  33.2076493  69.6835433  66.1694913  33.2656493
  68.9425433  67.1334913  33.8986493  69.0415433  66.6164913  33.3186493
  69.8675433  64.8224913  41.2126493  70.2985433  64.6934913  40.4656493
  69.6625433  65.6704913  41.1866493  69.9005433  64.9284913  41.0986493
  76.2135433  58.3864913  34.8626493  76.2115433  58.2694913  33.9976493
  76.0325433  59.2344913  34.9546493  76.1865433  58.4944913  34.7486493
  73.9515433  68.3384913  39.4946493  74.0775433  69.1814913  39.6816493
  74.6195433  67.9394913  39.8906493  74.0695433  68.4044913  39.5806493
  72.0815433  61.8214913  49.3566493  71.5455433  61.3154913  49.8246493
  72.1015433  61.4314913  48.5766493  72.0045433  61.6884913  49.3106493
  72.5665433  61.2184913  34.4966493  72.4385433  60.7704913  35.2346493
  71.9845433  60.8764913  33.9446493  72.4615433  61.1014913  34.5246493
  72.7335433  63.0484913  41.0956493  71.9525433  62.9894913  40.7126493
  72.8055433  62.2964913  41.5326493  72.6285433  62.9294913  41.1036493
  73.1635433  62.7854913  44.5636493  73.1885433  62.1104913  44.0126493
  72.5175433  63.2814913  44.2516493  73.0725433  62.7584913  44.4366493
  77.2635433  71.5624913  43.9556493  76.9865433  70.9214913  43.4326493
  77.0555433  72.2884913  43.5176493  77.1925433  71.5754913  43.8136493
  70.9625433  64.1404913  50.1226493  70.9255433  64.6414913  49.4086493
  71.2935433  63.3884913  49.8276493  71.0055433  64.1024913  49.9736493
  76.8615433  69.1904913  49.5576493  77.2155433  69.0124913  50.3346493
  76.4255433  68.4614913  49.3586493  76.8495433  69.0564913  49.6436493
  77.8335433  59.9374913  42.1956493  78.3135433  60.6364913  42.4036493
  78.2065433  59.2904913  42.6466493  77.9595433  59.9454913  42.2926493
  74.9445433  71.7054913  36.1426493  74.7975433  70.9294913  36.5136493
  75.6335433  71.5584913  35.6276493  75.0245433  71.5684913  36.1216493
  74.6155433  55.4484913  34.1306493  74.7125433  55.3414913  34.9916493
  73.9075433  55.9544913  34.0656493  74.5255433  55.5074913  34.2486493
  77.2365433  71.2214913  34.5446493  77.8585433  71.3844913  35.1346493
  77.2725433  71.9124913  34.0126493  77.3335433  71.3474913  34.5536493
  71.7375433  63.7554913  35.3736493  72.0615433  62.9764913  35.1516493
  72.3835433  64.1234913  35.8286493  71.8805433  63.6944913  35.4076493
  68.7345433  55.4164913  36.3416493  68.8635433  54.7084913  35.8496493
  68.3675433  55.0984913  37.0666493  68.6995433  55.2644913  36.3766493
  78.4275433  63.0974913  36.7986493  78.4865433  63.7474913  37.3776493
  78.2385433  62.4014913  37.2896493  78.4085433  63.0904913  36.9566493
  72.9235433  57.6144913  33.3106493  72.4125433  57.6674913  32.6046493
  73.7075433  57.8544913  33.0146493  72.9635433  57.6574913  33.1626493
  77.6505433  65.1444913  41.2296493  76.8035433  64.9504913  41.3106493
  77.9745433  64.9794913  42.0226493  77.5725433  65.0914913  41.3586493
  74.4025433  71.8744913  32.1156493  74.8415433  71.1774913  32.4036493
  74.6095433  72.4984913  32.6886493  74.4985433  71.8634913  32.2426493
  71.4985433  64.8374913  43.5456493  72.2205433  65.3254913  43.5086493
  71.2285433  64.8074913  42.7166493  71.5655433  64.9054913  43.4176493
  74.7285433  60.0084913  40.2806493  75.5745433  59.8184913  40.3786493
  74.3585433  59.2314913  40.1426493  74.7985433  59.8654913  40.2746493
  69.5495433  61.3464913  36.9356493  70.0385433  61.0544913  37.5966493
  69.6785433  60.7534913  36.3086493  69.6405433  61.2154913  36.9406493
  74.0745433  62.7804913  32.4216493  73.4645433  62.3754913  32.8956493
  73.6885433  62.8984913  31.6486493  73.9275433  62.7374913  32.3776493
  70.8935433  65.8894913  47.8236493  70.4725433  65.3714913  47.2626493
  70.5415433  66.6754913  47.6806493  70.7795433  65.9294913  47.7196493
  75.5295433  61.2414913  35.1316493  75.8015433  62.0674913  35.1986493
  74.6665433  61.3164913  35.0356493  75.4425433  61.3744913  35.1266493
  69.0095433  57.2114913  41.6676493  69.0535433  57.5554913  40.8666493
  69.7645433  57.4484913  42.0346493  69.1275433  57.2974913  41.6036493
  75.6325433  67.7004913  44.4416493  75.3345433  68.2924913  45.0086493
  75.6875433  68.1424913  43.6926493  75.5965433  67.8534913  44.4146493
  73.6115433  66.6504913  47.8396493  72.8055433  66.3604913  48.0066493
  73.5225433  67.5184913  47.8456493  73.4795433  66.7354913  47.8646493
  74.8585433  59.7264913  46.6736493  75.0195433  58.9824913  47.1006493
  74.8135433  59.4774913  45.8386493  74.8755433  59.5794913  46.6136493
  77.4125433  71.5164913  39.1606493  77.9585433  72.1954913  39.2146493
  77.0625433  71.5984913  38.3656493  77.4415433  71.6294913  39.0506493
  76.6105433  55.5344913  46.5536493  77.3155433  55.8544913  46.1516493
  76.8515433  54.7274913  46.7806493  76.7495433  55.4624913  46.5276493
  75.5955433  69.7444913  42.5496493  74.9715433  70.3264913  42.3676493
  75.8435433  69.4584913  41.7636493  75.5395433  69.7884913  42.4066493
  77.1895433  64.5204913  32.4646493  76.3845433  64.3434913  32.1796493
  77.1565433  65.3714913  32.6566493  77.0655433  64.6194913  32.4516493
  73.1195433  60.5874913  42.6146493  73.5595433  60.4844913  41.8686493
  73.6645433  60.2744913  43.2196493  73.2645433  60.5264913  42.5936493
  76.6665433  55.5724913  42.6616493  75.8405433  55.4234913  42.8986493
  76.6265433  55.6074913  41.7906493  76.5385433  55.5554913  42.5676493
  78.3075433  66.6124913  47.4496493  77.5125433  66.5484913  47.8006493
  78.3785433  67.4594913  47.2546493  78.2005433  66.7274913  47.4726493
  69.2315433  55.9704913  48.6966493  69.0915433  56.7654913  48.3656493
  68.4455433  55.7274913  48.9856493  69.0945433  56.0524913  48.6906493
  74.1375433  72.8194913  42.7666493  74.1485433  72.8784913  43.6366493
  73.7125433  72.0724913  42.6166493  74.0765433  72.7174913  42.8726493
  72.2955433  58.7144913  35.9216493  72.4215433  58.3854913  35.1236493
  71.4835433  58.4654913  36.1206493  72.1945433  58.6294913  35.8336493
  70.9015433  72.3174913  48.2086493  70.2475433  71.7484913  48.3066493
  70.5265433  73.0904913  48.3596493  70.7495433  72.3474913  48.2456493
  72.2725433  60.7254913  46.3376493  72.6475433  61.3444913  45.8506493
  72.9465433  60.2514913  46.6226493  72.4275433  60.7474913  46.3076493
  70.0475433  59.1734913  45.6126493  70.1245433  59.0044913  44.7596493
  70.7935433  59.5794913  45.8096493  70.1685433  59.2084913  45.5156493
  72.6015433  56.5834913  48.0236493  72.5205433  55.7394913  48.2296493
  72.2875433  56.6274913  47.2106493  72.5435433  56.4654913  47.9336493
  69.4445433  64.3994913  45.8366493  69.7645433  64.6184913  45.0556493
  69.3445433  63.5344913  45.7816493  69.4765433  64.3044913  45.7136493
  70.9005433  60.3354913  32.4546493  70.2285433  60.3494913  33.0106493
  70.9955433  59.4874913  32.2706493  70.8155433  60.2124913  32.5096493
  74.8885433  69.0404913  33.5686493  75.3295433  69.1204913  34.3166493
  74.0835433  68.8244913  33.8266493  74.8345433  69.0204913  33.7176493
  74.2075433  63.6914913  47.2216493  73.8115433  64.4654913  47.2966493
  73.8015433  63.3184913  46.5456493  74.0895433  63.7504913  47.1326493
  72.2175433  68.1104913  34.1696493  71.9735433  67.8034913  34.9496493
  72.1845433  67.4074913  33.6536493  72.1765433  67.9614913  34.2086493
  75.0365433  66.3554913  32.9126493  74.2185433  66.0874913  33.0526493
  75.0085433  67.2074913  33.0976493  74.9115433  66.4424913  32.9606493
  74.6365433  56.6684913  44.6716493  73.7725433  56.7524913  44.7516493
  74.8565433  56.1544913  45.3406493  74.5415433  56.6054913  44.7826493
  76.2425433  61.7454913  48.2496493  75.9205433  61.1694913  47.6796493
  75.8835433  62.5004913  48.0036493  76.1425433  61.7714913  48.1296493
  77.0385433  54.9974913  32.8766493  77.1165433  55.2444913  32.0436493
  76.2955433  55.3744913  33.1346493  76.9405433  55.0894913  32.7916493
  74.6775433  72.1014913  48.4976493  74.7185433  72.2274913  49.3606493
  75.3285433  71.5414913  48.3416493  74.7795433  72.0374913  48.6026493
  71.8565433  56.7514913  45.3196493  71.5135433  55.9844913  45.0856493
  71.1615433  57.2754913  45.3836493  71.7035433  56.7154913  45.2946493
  72.2705433  70.4844913  49.8576493  72.8655433  70.9154913  50.3296493
  71.9065433  71.1084913  49.3686493  72.3045433  70.6404913  49.8546493
  70.5095433  60.0654913  39.2756493  70.1415433  60.3674913  40.0066493
  71.0435433  59.4364913  39.5596493  70.5335433  60.0174913  39.4256493
  70.1975433  68.4734913  46.7866493  69.6235433  68.8894913  47.2956493
  70.9305433  68.9384913  46.8816493  70.2215433  68.6034913  46.8756493
  71.9835433  71.7404913  35.5616493  71.8385433  71.8964913  34.7156493
  72.8495433  71.8194913  35.6396493  72.0905433  71.7754913  35.4486493
  76.1505433  64.1374913  35.2896493  76.2505433  64.2764913  34.4346493
  76.9685433  64.0774913  35.5856493  76.2855433  64.1484913  35.2066493
  75.2895433  57.1124913  48.4056493  75.5235433  56.5364913  47.7926493
  74.4475433  56.9314913  48.5466493  75.1995433  57.0004913  48.3356493
  72.6705433  70.5554913  42.0386493  72.5915433  69.7454913  41.7226493
  72.2265433  71.0424913  41.4666493  72.5935433  70.5074913  41.9076493
  70.2425433  72.7994913  45.6196493  70.7355433  72.7434913  46.3376493
  70.4305433  72.0664913  45.1846493  70.3435433  72.6824913  45.6616493
  69.3585433  66.3714913  18.8874083  68.9175433  66.4894913  19.6304083
  69.0755433  65.5964913  18.6024083  69.2515433  66.2744913  18.9554083
  69.1015433  60.1634913  15.3944083  68.3235433  60.3254913  15.0344083
  69.1405433  59.2924913  15.4164083  68.9925433  60.0584913  15.3444083
  72.2405433  65.4264913  14.0664083  71.8485433  65.0554913  13.3804083
  72.1605433  64.8284913  14.6954083  72.1705433  65.2834913  14.0574083
  71.8675433  67.0674913  17.9664083  72.4755433  66.8974913  18.5694083
  71.1165433  66.9274913  18.3874083  71.8465433  67.0214913  18.1174083
  76.1495433  56.4024913  17.9154083  76.0795433  57.0794913  17.3694083
  76.8905433  56.0144913  17.6664083  76.2485433  56.4454913  17.7974083
  70.7585433  70.1584913  14.0434083  71.2255433  70.2424913  13.3114083
  71.2135433  69.5804913  14.5124083  70.8945433  70.0854913  14.0044083
  69.2985433  69.1064913  25.1424083  69.4275433  68.8264913  25.9584083
  68.6885433  68.5654913  24.8334083  69.2275433  68.9854913  25.2174083
  75.8725433  66.6314913  30.2094083  75.6365433  66.6284913  31.0494083
  75.1245433  66.4834913  29.7854083  75.7265433  66.6084913  30.2704083
  70.7445433  63.6274913  19.3444083  70.2825433  63.2354913  18.7174083
  71.4445433  63.1144913  19.4364083  70.7795433  63.4944913  19.2654083
  75.2525433  59.2374913  24.6914083  75.9305433  59.2554913  24.1424083
  75.2075433  58.4014913  24.9364083  75.3455433  59.1164913  24.6464083
  75.8545433  69.8234913  27.4724083  75.9925433  70.5834913  27.0654083
  76.6455433  69.4584913  27.4994083  75.9915433  69.8824913  27.4164083
  72.7455433  61.7274913  19.3674083  73.5625433  61.5404913  19.6104083
  72.2685433  61.1134913  19.7634083  72.7955433  61.6094913  19.4624083
  76.9495433  67.7084913  21.9774083  77.2975433  66.9094913  22.0074083
  77.6145433  68.2124913  21.7224083  77.0995433  67.6644913  21.9444083
  77.0065433  67.1574913  18.1884083  77.3375433  66.5134913  18.6744083
  77.2465433  66.9464913  17.3774083  77.0905433  67.0314913  18.1404083
  73.3425433  56.8214913  18.6334083  73.0465433  57.3224913  17.9834083
  74.2095433  56.8994913  18.5764083  73.4265433  56.9074913  18.5294083
  76.3215433  55.9634913  20.8564083  76.3945433  56.8234913  20.9854083
  76.2835433  55.8884913  19.9884083  76.3265433  56.0794913  20.7474083
  69.2005433  61.3884913  22.3574083  68.9445433  62.2194913  22.2824083
  68.5365433  61.0054913  22.7744083  69.0645433  61.4544913  22.4084083
  69.1105433  71.0984913  20.2574083  68.5185433  71.6564913  19.9444083
  69.5365433  70.8294913  19.5454083  69.0865433  71.1404913  20.1064083
  74.9505433  68.9424913  17.7374083  74.3715433  68.6674913  18.3294083
  75.5745433  68.3334913  17.7624083  74.9575433  68.8124913  17.8284083
  72.2295433  56.2054913  22.8484083  71.7085433  55.5774913  22.5404083
  72.8205433  55.7684913  23.3194083  72.2405433  56.0474913  22.8724083
  75.5355433  58.3384913  32.1464083  75.6525433  57.8844913  31.4104083
  75.8235433  59.1364913  31.9434083  75.5955433  58.3894913  32.0074083
  70.6555433  69.7684913  18.1884083  71.3115433  69.1934913  18.2034083
  71.0445433  70.5174913  17.9674083  70.8105433  69.7934913  18.1584083
  71.2685433  57.9354913  31.1304083  70.4905433  57.5454913  31.0584083
  71.7595433  57.5234913  30.5394083  71.2255433  57.8164913  31.0324083
  71.4735433  68.2554913  21.6884083  71.8965433  67.8994913  21.0144083
  71.7975433  67.8334913  22.3804083  71.5835433  68.1404913  21.6914083
  74.7045433  71.1074913  20.9844083  75.5485433  71.2114913  20.7894083
  74.4075433  71.9254913  21.0524083  74.7855433  71.2434913  20.9654083
  77.9175433  55.5784913  30.2984083  78.0955433  54.7694913  30.0234083
  77.7745433  56.0194913  29.5594083  77.9225433  55.5244913  30.1484083
  73.7025433  72.3264913  26.7244083  73.9945433  72.2594913  27.5444083
  73.0765433  71.7214913  26.6794083  73.6535433  72.2274913  26.8394083
  68.6165433  58.4834913  28.7164083  68.6125433  59.0704913  29.3624083
  69.2105433  58.7954913  28.1594083  68.7035433  58.6164913  28.7294083
  69.5535433  58.0784913  17.6314083  69.4395433  57.2144913  17.6624083
  69.0785433  58.3724913  18.3014083  69.4665433  57.9944913  17.7344083
  71.6955433  70.4884913  25.8464083  70.9975433  69.9804913  25.9724083
  71.9555433  70.2834913  25.0384083  71.6305433  70.3834913  25.7454083
  77.4555433  58.5944913  20.7894083  77.5295433  59.1624913  20.1314083
  77.5765433  59.0864913  21.4994083  77.4835433  58.7514913  20.7974083
  73.0565433  69.3394913  28.4134083  73.8975433  69.4024913  28.1914083
  73.0195433  69.7364913  29.1894083  73.1755433  69.4074913  28.4954083
  72.0635433  54.4174913  19.1374083  72.5995433  55.1054913  19.1274083
  72.0665433  54.1434913  18.3094083  72.1425433  54.4784913  19.0134083
  75.0195433  64.8504913  23.1624083  75.1915433  64.6404913  23.9914083
  74.3645433  64.3164913  22.9464083  74.9485433  64.7404913  23.2534083
  75.7695433  64.7884913  25.7524083  75.8225433  65.6354913  25.9544083
  75.4845433  64.4184913  26.4894083  75.7355433  64.8584913  25.8904083
  72.5115433  58.2274913  20.7914083  72.7835433  57.7974913  20.0834083
  72.3355433  57.5914913  21.3624083  72.5255433  58.0704913  20.7714083
  72.3355433  65.6544913  20.3404083  73.1865433  65.5744913  20.1674083
  71.9785433  64.9724913  19.9284083  72.4085433  65.5414913  20.2534083
  71.1025433  72.3794913  21.5774083  70.4295433  71.8814913  21.3324083
  71.5055433  72.5644913  20.8264083  71.0625433  72.3334913  21.4304083
  70.6525433  59.3294913  23.8734083  71.4955433  59.5494913  23.8304083
  70.2635433  59.9024913  23.3424083  70.7195433  59.4464913  23.7884083
  74.7035433  65.6614913  18.5754083  75.4165433  66.1564913  18.6654083
  74.9255433  65.0944913  17.9494083  74.8415433  65.6504913  18.4964083
  68.8595433  67.3044913  21.8954083  68.1925433  67.7924913  22.1714083
  69.5395433  67.8494913  21.9244083  68.8615433  67.4564913  21.9404083
  76.5065433  61.0144913  31.9914083  76.0225433  61.5914913  32.4334083
  76.4785433  61.3094913  31.1704083  76.4305433  61.1434913  31.9354083
  68.9255433  63.9884913  16.9984083  68.7405433  63.1494913  17.1504083
  69.5845433  63.9524913  16.4284083  68.9955433  63.8594913  16.9364083
  69.0975433  68.1524913  16.5734083  69.6495433  68.7214913  16.9374083
  68.8655433  67.6374913  17.2384083  69.1445433  68.1604913  16.7254083
  73.3015433  67.1524913  23.6624083  73.7685433  67.4414913  24.3404083
  73.8735433  66.6744913  23.2084083  73.4555433  67.1244913  23.6954083
  68.9275433  66.6014913  14.2014083  69.6835433  66.1694913  14.2594083
  68.9425433  67.1334913  14.8924083  69.0415433  66.6164913  14.3124083
  69.8675433  64.8224913  22.2064083  70.2985433  64.6934913  21.4594083
  69.6625433  65.6704913  22.1804083  69.9005433  64.9284913  22.0924083
  76.2135433  58.3864913  15.8564083  76.2115433  58.2694913  14.9914083
  76.0325433  59.2344913  15.9484083  76.1865433  58.4944913  15.7424083
  73.9515433  68.3384913  20.4884083  74.0775433  69.1814913  20.6754083
  74.6195433  67.9394913  20.8844083  74.0695433  68.4044913  20.5744083
  72.0815433  61.8214913  30.3504083  71.5455433  61.3154913  30.8184083
  72.1015433  61.4314913  29.5704083  72.0045433  61.6884913  30.3044083
  72.5665433  61.2184913  15.4904083  72.4385433  60.7704913  16.2284083
  71.9845433  60.8764913  14.9384083  72.4615433  61.1014913  15.5184083
  72.7335433  63.0484913  22.0894083  71.9525433  62.9894913  21.7064083
  72.8055433  62.2964913  22.5264083  72.6285433  62.9294913  22.0974083
  73.1635433  62.7854913  25.5574083  73.1885433  62.1104913  25.0064083
  72.5175433  63.2814913  25.2454083  73.0725433  62.7584913  25.4304083
  77.2635433  71.5624913  24.9494083  76.9865433  70.9214913  24.4264083
  77.0555433  72.2884913  24.5114083  77.1925433  71.5754913  24.8074083
  70.9625433  64.1404913  31.1164083  70.9255433  64.6414913  30.4024083
  71.2935433  63.3884913  30.8214083  71.0055433  64.1024913  30.9674083
  76.8615433  69.1904913  30.5514083  77.2155433  69.0124913  31.3284083
  76.4255433  68.4614913  30.3524083  76.8495433  69.0564913  30.6374083
  77.8335433  59.9374913  23.1894083  78.3135433  60.6364913  23.3974083
  78.2065433  59.2904913  23.6404083  77.9595433  59.9454913  23.2864083
  74.9445433  71.7054913  17.1364083  74.7975433  70.9294913  17.5074083
  75.6335433  71.5584913  16.6214083  75.0245433  71.5684913  17.1154083
  74.6155433  55.4484913  15.1244083  74.7125433  55.3414913  15.9854083
  73.9075433  55.9544913  15.0594083  74.5255433  55.5074913  15.2424083
  77.2365433  71.2214913  15.5384083  77.8585433  71.3844913  16.1284083
  77.2725433  71.9124913  15.0064083  77.3335433  71.3474913  15.5474083
  71.7375433  63.7554913  16.3674083  72.0615433  62.9764913  16.1454083
  72.3835433  64.1234913  16.8224083  71.8805433  63.6944913  16.4014083
  68.7345433  55.4164913  17.3354083  68.8635433  54.7084913  16.8434083
  68.3675433  55.0984913  18.0604083  68.6995433  55.2644913  17.3704083
  78.4275433  63.0974913  17.7924083  78.4865433  63.7474913  18.3714083
  78.2385433  62.4014913  18.2834083  78.4085433  63.0904913  17.9504083
  72.9235433  57.6144913  14.3044083  72.4125433  57.6674913  13.5984083
  73.7075433  57.8544913  14.0084083  72.9635433  57.6574913  14.1564083
  77.6505433  65.1444913  22.2234083  76.8035433  64.9504913  22.3044083
  77.9745433  64.9794913  23.0164083  77.5725433  65.0914913  22.3524083
  74.4025433  71.8744913  13.1094083  74.8415433  71.1774913  13.3974083
  74.6095433  72.4984913  13.6824083  74.4985433  71.8634913  13.2364083
  71.4985433  64.8374913  24.5394083  72.2205433  65.3254913  24.5024083
  71.2285433  64.8074913  23.7104083  71.5655433  64.9054913  24.4114083
  74.7285433  60.0084913  21.2744083  75.5745433  59.8184913  21.3724083
  74.3585433  59.2314913  21.1364083  74.7985433  59.8654913  21.2684083
  69.5495433  61.3464913  17.9294083  70.0385433  61.0544913  18.5904083
  69.6785433  60.7534913  17.3024083  69.6405433  61.2154913  17.9344083
  74.0745433  62.7804913  13.4154083  73.4645433  62.3754913  13.8894083
  73.6885433  62.8984913  12.6424083  73.9275433  62.7374913  13.3714083
  70.8935433  65.8894913  28.8174083  70.4725433  65.3714913  28.2564083
  70.5415433  66.6754913  28.6744083  70.7795433  65.9294913  28.7134083
  75.5295433  61.2414913  16.1254083  75.8015433  62.0674913  16.1924083
  74.6665433  61.3164913  16.0294083  75.4425433  61.3744913  16.1204083
  69.0095433  57.2114913  22.6614083  69.0535433  57.5554913  21.8604083
  69.7645433  57.4484913  23.0284083  69.1275433  57.2974913  22.5974083
  75.6325433  67.7004913  25.4354083  75.3345433  68.2924913  26.0024083
  75.6875433  68.1424913  24.6864083  75.5965433  67.8534913  25.4084083
  73.6115433  66.6504913  28.8334083  72.8055433  66.3604913  29.0004083
  73.5225433  67.5184913  28.8394083  73.4795433  66.7354913  28.8584083
  74.8585433  59.7264913  27.6674083  75.0195433  58.9824913  28.0944083
  74.8135433  59.4774913  26.8324083  74.8755433  59.5794913  27.6074083
  77.4125433  71.5164913  20.1544083  77.9585433  72.1954913  20.2084083
  77.0625433  71.5984913  19.3594083  77.4415433  71.6294913  20.0444083
  76.6105433  55.5344913  27.5474083  77.3155433  55.8544913  27.1454083
  76.8515433  54.7274913  27.7744083  76.7495433  55.4624913  27.5214083
  75.5955433  69.7444913  23.5434083  74.9715433  70.3264913  23.3614083
  75.8435433  69.4584913  22.7574083  75.5395433  69.7884913  23.4004083
  77.1895433  64.5204913  13.4584083  76.3845433  64.3434913  13.1734083
  77.1565433  65.3714913  13.6504083  77.0655433  64.6194913  13.4454083
  73.1195433  60.5874913  23.6084083  73.5595433  60.4844913  22.8624083
  73.6645433  60.2744913  24.2134083  73.2645433  60.5264913  23.5874083
  76.6665433  55.5724913  23.6554083  75.8405433  55.4234913  23.8924083
  76.6265433  55.6074913  22.7844083  76.5385433  55.5554913  23.5614083
  78.3075433  66.6124913  28.4434083  77.5125433  66.5484913  28.7944083
  78.3785433  67.4594913  28.2484083  78.2005433  66.7274913  28.4664083
  69.2315433  55.9704913  29.6904083  69.0915433  56.7654913  29.3594083
  68.4455433  55.7274913  29.9794083  69.0945433  56.0524913  29.6844083
  74.1375433  72.8194913  23.7604083  74.1485433  72.8784913  24.6304083
  73.7125433  72.0724913  23.6104083  74.0765433  72.7174913  23.8664083
  72.2955433  58.7144913  16.9154083  72.4215433  58.3854913  16.1174083
  71.4835433  58.4654913  17.1144083  72.1945433  58.6294913  16.8274083
  70.9015433  72.3174913  29.2024083  70.2475433  71.7484913  29.3004083
  70.5265433  73.0904913  29.3534083  70.7495433  72.3474913  29.2394083
  72.2725433  60.7254913  27.3314083  72.6475433  61.3444913  26.8444083
  72.9465433  60.2514913  27.6164083  72.4275433  60.7474913  27.3014083
  70.0475433  59.1734913  26.6064083  70.1245433  59.0044913  25.7534083
  70.7935433  59.5794913  26.8034083  70.1685433  59.2084913  26.5094083
  72.6015433  56.5834913  29.0174083  72.5205433  55.7394913  29.2234083
  72.2875433  56.6274913  28.2044083  72.5435433  56.4654913  28.9274083
  69.4445433  64.3994913  26.8304083  69.7645433  64.6184913  26.0494083
  69.3445433  63.5344913  26.7754083  69.4765433  64.3044913  26.7074083
  70.9005433  60.3354913  13.4484083  70.2285433  60.3494913  14.0044083
  70.9955433  59.4874913  13.2644083  70.8155433  60.2124913  13.5034083
  74.8885433  69.0404913  14.5624083  75.3295433  69.1204913  15.3104083
  74.0835433  68.8244913  14.8204083  74.8345433  69.0204913  14.7114083
  74.2075433  63.6914913  28.2154083  73.8115433  64.4654913  28.2904083
  73.8015433  63.3184913  27.5394083  74.0895433  63.7504913  28.1264083
  72.2175433  68.1104913  15.1634083  71.9735433  67.8034913  15.9434083
  72.1845433  67.4074913  14.6474083  72.1765433  67.9614913  15.2024083
  75.0365433  66.3554913  13.9064083  74.2185433  66.0874913  14.0464083
  75.0085433  67.2074913  14.0914083  74.9115433  66.4424913  13.9544083
  74.6365433  56.6684913  25.6654083  73.7725433  56.7524913  25.7454083
  74.8565433  56.1544913  26.3344083  74.5415433  56.6054913  25.7764083
  76.2425433  61.7454913  29.2434083  75.9205433  61.1694913  28.6734083
  75.8835433  62.5004913  28.9974083  76.1425433  61.7714913  29.1234083
  77.0385433  54.9974913  13.8704083  77.1165433  55.2444913  13.0374083
  76.2955433  55.3744913  14.1284083  76.9405433  55.0894913  13.7854083
  74.6775433  72.1014913  29.4914083  74.7185433  72.2274913  30.3544083
  75.3285433  71.5414913  29.3354083  74.7795433  72.0374913  29.5964083
  71.8565433  56.7514913  26.3134083  71.5135433  55.9844913  26.0794083
  71.1615433  57.2754913  26.3774083  71.7035433  56.7154913  26.2884083
  72.2705433  70.4844913  30.8514083  72.8655433  70.9154913  31.3234083
  71.9065433  71.1084913  30.3624083  72.3045433  70.6404913  30.8484083
  70.5095433  60.0654913  20.2694083  70.1415433  60.3674913  21.0004083
  71.0435433  59.4364913  20.5534083  70.5335433  60.0174913  20.4194083
  70.1975433  68.4734913  27.7804083  69.6235433  68.8894913  28.2894083
  70.9305433  68.9384913  27.8754083  70.2215433  68.6034913  27.8694083
  71.9835433  71.7404913  16.5554083  71.8385433  71.8964913  15.7094083
  72.8495433  71.8194913  16.6334083  72.0905433  71.7754913  16.4424083
  76.1505433  64.1374913  16.2834083  76.2505433  64.2764913  15.4284083
  76.9685433  64.0774913  16.5794083  76.2855433  64.1484913  16.2004083
  75.2895433  57.1124913  29.3994083  75.5235433  56.5364913  28.7864083
  74.4475433  56.9314913  29.5404083  75.1995433  57.0004913  29.3294083
  72.6705433  70.5554913  23.0324083  72.5915433  69.7454913  22.7164083
  72.2265433  71.0424913  22.4604083  72.5935433  70.5074913  22.9014083
  70.2425433  72.7994913  26.6134083  70.7355433  72.7434913  27.3314083
  70.4305433  72.0664913  26.1784083  70.3435433  72.6824913  26.6554083
  69.2985433  69.1064913   6.1361673  69.4275433  68.8264913   6.9521673
  68.6885433  68.5654913   5.8271673  69.2275433  68.9854913   6.2111673
  75.8725433  66.6314913  11.2031673  75.6365433  66.6284913  12.0431673
  75.1245433  66.4834913  10.7791673  75.7265433  66.6084913  11.2641673
  75.2525433  59.2374913   5.6851673  75.9305433  59.2554913   5.1361673
  75.2075433  58.4014913   5.9301673  75.3455433  59.1164913   5.6401673
  75.8545433  69.8234913   8.4661673  75.9925433  70.5834913   8.0591673
  76.6455433  69.4584913   8.4931673  75.9915433  69.8824913   8.4101673
  76.9495433  67.7084913   2.9711673  77.2975433  66.9094913   3.0011673
  77.6145433  68.2124913   2.7161673  77.0995433  67.6644913   2.9381673
  69.2005433  61.3884913   3.3511673  68.9445433  62.2194913   3.2761673
  68.5365433  61.0054913   3.7681673  69.0645433  61.4544913   3.4021673
  72.2295433  56.2054913   3.8421673  71.7085433  55.5774913   3.5341673
  72.8205433  55.7684913   4.3131673  72.2405433  56.0474913   3.8661673
  75.5355433  58.3384913  13.1401673  75.6525433  57.8844913  12.4041673
  75.8235433  59.1364913  12.9371673  75.5955433  58.3894913  13.0011673
  71.2685433  57.9354913  12.1241673  70.4905433  57.5454913  12.0521673
  71.7595433  57.5234913  11.5331673  71.2255433  57.8164913  12.0261673
  71.4735433  68.2554913   2.6821673  71.8965433  67.8994913   2.0081673
  71.7975433  67.8334913   3.3741673  71.5835433  68.1404913   2.6851673
  74.7045433  71.1074913   1.9781673  75.5485433  71.2114913   1.7831673
  74.4075433  71.9254913   2.0461673  74.7855433  71.2434913   1.9591673
  77.9175433  55.5784913  11.2921673  78.0955433  54.7694913  11.0171673
  77.7745433  56.0194913  10.5531673  77.9225433  55.5244913  11.1421673
  73.7025433  72.3264913   7.7181673  73.9945433  72.2594913   8.5381673
  73.0765433  71.7214913   7.6731673  73.6535433  72.2274913   7.8331673
  68.6165433  58.4834913   9.7101673  68.6125433  59.0704913  10.3561673
  69.2105433  58.7954913   9.1531673  68.7035433  58.6164913   9.7231673
  71.6955433  70.4884913   6.8401673  70.9975433  69.9804913   6.9661673
  71.9555433  70.2834913   6.0321673  71.6305433  70.3834913   6.7391673
  73.0565433  69.3394913   9.4071673  73.8975433  69.4024913   9.1851673
  73.0195433  69.7364913  10.1831673  73.1755433  69.4074913   9.4891673
  75.0195433  64.8504913   4.1561673  75.1915433  64.6404913   4.9851673
  74.3645433  64.3164913   3.9401673  74.9485433  64.7404913   4.2471673
  75.7695433  64.7884913   6.7461673  75.8225433  65.6354913   6.9481673
  75.4845433  64.4184913   7.4831673  75.7355433  64.8584913   6.8841673
  68.5905433  69.1594913  12.9571673  69.3465433  69.5084913  13.2151673
  68.7675433  68.3064913  12.9001673  68.7285433  69.0844913  12.9871673
  71.1025433  72.3794913   2.5711673  70.4295433  71.8814913   2.3261673
  71.5055433  72.5644913   1.8201673  71.0625433  72.3334913   2.4241673
  70.6525433  59.3294913   4.8671673  71.4955433  59.5494913   4.8241673
  70.2635433  59.9024913   4.3361673  70.7195433  59.4464913   4.7821673
  68.8595433  67.3044913   2.8891673  68.1925433  67.7924913   3.1651673
  69.5395433  67.8494913   2.9181673  68.8615433  67.4564913   2.9341673
  76.5065433  61.0144913  12.9851673  76.0225433  61.5914913  13.4271673
  76.4785433  61.3094913  12.1641673  76.4305433  61.1434913  12.9291673
  73.3015433  67.1524913   4.6561673  73.7685433  67.4414913   5.3341673
  73.8735433  66.6744913   4.2021673  73.4555433  67.1244913   4.6891673
  69.8675433  64.8224913   3.2001673  70.2985433  64.6934913   2.4531673
  69.6625433  65.6704913   3.1741673  69.9005433  64.9284913   3.0861673
  72.0815433  61.8214913  11.3441673  71.5455433  61.3154913  11.8121673
  72.1015433  61.4314913  10.5641673  72.0045433  61.6884913  11.2981673
  72.7335433  63.0484913   3.0831673  71.9525433  62.9894913   2.7001673
  72.8055433  62.2964913   3.5201673  72.6285433  62.9294913   3.0911673
  73.1635433  62.7854913   6.5511673  73.1885433  62.1104913   6.0001673
  72.5175433  63.2814913   6.2391673  73.0725433  62.7584913   6.4241673
  77.2635433  71.5624913   5.9431673  76.9865433  70.9214913   5.4201673
  77.0555433  72.2884913   5.5051673  77.1925433  71.5754913   5.8011673
  70.9625433  64.1404913  12.1101673  70.9255433  64.6414913  11.3961673
  71.2935433  63.3884913  11.8151673  71.0055433  64.1024913  11.9611673
  76.8615433  69.1904913  11.5451673  77.2155433  69.0124913  12.3221673
  76.4255433  68.4614913  11.3461673  76.8495433  69.0564913  11.6311673
  77.8335433  59.9374913   4.1831673  78.3135433  60.6364913   4.3911673
  78.2065433  59.2904913   4.6341673  77.9595433  59.9454913   4.2801673
  77.6505433  65.1444913   3.2171673  76.8035433  64.9504913   3.2981673
  77.9745433  64.9794913   4.0101673  77.5725433  65.0914913   3.3461673
  71.4985433  64.8374913   5.5331673  72.2205433  65.3254913   5.4961673
  71.2285433  64.8074913   4.7041673  71.5655433  64.9054913   5.4051673
  74.7285433  60.0084913   2.2681673  75.5745433  59.8184913   2.3661673
  74.3585433  59.2314913   2.1301673  74.7985433  59.8654913   2.2621673
  70.8935433  65.8894913   9.8111673  70.4725433  65.3714913   9.2501673
  70.5415433  66.6754913   9.6681673  70.7795433  65.9294913   9.7071673
  69.0095433  57.2114913   3.6551673  69.0535433  57.5554913   2.8541673
  69.7645433  57.4484913   4.0221673  69.1275433  57.2974913   3.5911673
  75.6325433  67.7004913   6.4291673  75.3345433  68.2924913   6.9961673
  75.6875433  68.1424913   5.6801673  75.5965433  67.8534913   6.4021673
  73.6115433  66.6504913   9.8271673  72.8055433  66.3604913   9.9941673
  73.5225433  67.5184913   9.8331673  73.4795433  66.7354913   9.8521673
  74.8585433  59.7264913   8.6611673  75.0195433  58.9824913   9.0881673
  74.8135433  59.4774913   7.8261673  74.8755433  59.5794913   8.6011673
  76.6105433  55.5344913   8.5411673  77.3155433  55.8544913   8.1391673
  76.8515433  54.7274913   8.7681673  76.7495433  55.4624913   8.5151673
  75.5955433  69.7444913   4.5371673  74.9715433  70.3264913   4.3551673
  75.8435433  69.4584913   3.7511673  75.5395433  69.7884913   4.3941673
  73.1195433  60.5874913   4.6021673  73.5595433  60.4844913   3.8561673
  73.6645433  60.2744913   5.2071673  73.2645433  60.5264913   4.5811673
  76.6665433  55.5724913   4.6491673  75.8405433  55.4234913   4.8861673
  76.6265433  55.6074913   3.7781673  76.5385433  55.5554913   4.5551673
  78.3075433  66.6124913   9.4371673  77.5125433  66.5484913   9.7881673
  78.3785433  67.4594913   9.2421673  78.2005433  66.7274913   9.4601673
  69.2315433  55.9704913  10.6841673  69.0915433  56.7654913  10.3531673
  68.4455433  55.7274913  10.9731673  69.0945433  56.0524913  10.6781673
  74.1375433  72.8194913   4.7541673  74.1485433  72.8784913   5.6241673
  73.7125433  72.0724913   4.6041673  74.0765433  72.7174913   4.8601673
  70.9015433  72.3174913  10.1961673  70.2475433  71.7484913  10.2941673
  70.5265433  73.0904913  10.3471673  70.7495433  72.3474913  10.2331673
  72.2725433  60.7254913   8.3251673  72.6475433  61.3444913   7.8381673
  72.9465433  60.2514913   8.6101673  72.4275433  60.7474913   8.2951673
  70.0475433  59.1734913   7.6001673  70.1245433  59.0044913   6.7471673
  70.7935433  59.5794913   7.7971673  70.1685433  59.2084913   7.5031673
  72.6015433  56.5834913  10.0111673  72.5205433  55.7394913  10.2171673
  72.2875433  56.6274913   9.1981673  72.5435433  56.4654913   9.9211673
  69.4445433  64.3994913   7.8241673  69.7645433  64.6184913   7.0431673
  69.3445433  63.5344913   7.7691673  69.4765433  64.3044913   7.7011673
  74.2075433  63.6914913   9.2091673  73.8115433  64.4654913   9.2841673
  73.8015433  63.3184913   8.5331673  74.0895433  63.7504913   9.1201673
  74.6365433  56.6684913   6.6591673  73.7725433  56.7524913   6.7391673
  74.8565433  56.1544913   7.3281673  74.5415433  56.6054913   6.7701673
  76.2425433  61.7454913  10.2371673  75.9205433  61.1694913   9.6671673
  75.8835433  62.5004913   9.9911673  76.1425433  61.7714913  10.1171673
  74.6775433  72.1014913  10.4851673  74.7185433  72.2274913  11.3481673
  75.3285433  71.5414913  10.3291673  74.7795433  72.0374913  10.5901673
  71.8565433  56.7514913   7.3071673  71.5135433  55.9844913   7.0731673
  71.1615433  57.2754913   7.3711673  71.7035433  56.7154913   7.2821673
  72.2705433  70.4844913  11.8451673  72.8655433  70.9154913  12.3171673
  71.9065433  71.1084913  11.3561673  72.3045433  70.6404913  11.8421673
  70.1975433  68.4734913   8.7741673  69.6235433  68.8894913   9.2831673
  70.9305433  68.9384913   8.8691673  70.2215433  68.6034913   8.8631673
  75.2895433  57.1124913  10.3931673  75.5235433  56.5364913   9.7801673
  74.4475433  56.9314913  10.5341673  75.1995433  57.0004913  10.3231673
  72.6705433  70.5554913   4.0261673  72.5915433  69.7454913   3.7101673
  72.2265433  71.0424913   3.4541673  72.5935433  70.5074913   3.8951673
  70.2425433  72.7994913   7.6071673  70.7355433  72.7434913   8.3251673
  70.4305433  72.0664913   7.1721673  70.3435433  72.6824913   7.6491673
  69.3585433  47.8933833  75.9061313  68.9175433  48.0113833  76.6491313
  69.0755433  47.1183833  75.6211313  69.2515433  47.7963833  75.9741313
  69.1015433  41.6853833  72.4131313  68.3235433  41.8473833  72.0531313
  69.1405433  40.8143833  72.4351313  68.9925433  41.5803833  72.3631313
  72.2405433  46.9483833  71.0851313  71.8485433  46.5773833  70.3991313
  72.1605433  46.3503833  71.7141313  72.1705433  46.8053833  71.0761313
  71.8675433  48.5893833  74.9851313  72.4755433  48.4193833  75.5881313
  71.1165433  48.4493833  75.4061313  71.8465433  48.5433833  75.1361313
  76.1495433  37.9243833  74.9341313  76.0795433  38.6013833  74.3881313
  76.8905433  37.5363833  74.6851313  76.2485433  37.9673833  74.8161313
  70.7585433  51.6803833  71.0621313  71.2255433  51.7643833  70.3301313
  71.2135433  51.1023833  71.5311313  70.8945433  51.6073833  71.0231313
  70.7445433  45.1493833  76.3631313  70.2825433  44.7573833  75.7361313
  71.4445433  44.6363833  76.4551313  70.7795433  45.0163833  76.2841313
  72.7455433  43.2493833  76.3861313  73.5625433  43.0623833  76.6291313
  72.2685433  42.6353833  76.7821313  72.7955433  43.1313833  76.4811313
  76.9495433  49.2303833  78.9961313  77.2975433  48.4313833  79.0261313
  77.6145433  49.7343833  78.7411313  77.0995433  49.1863833  78.9631313
  77.0065433  48.6793833  75.2071313  77.3375433  48.0353833  75.6931313
  77.2465433  48.4683833  74.3961313  77.0905433  48.5533833  75.1591313
  73.3425433  38.3433833  75.6521313  73.0465433  38.8443833  75.0021313
  74.2095433  38.4213833  75.5951313  73.4265433  38.4293833  75.5481313
  76.3215433  37.4853833  77.8751313  76.3945433  38.3453833  78.0041313
  76.2835433  37.4103833  77.0071313  76.3265433  37.6013833  77.7661313
  69.2005433  42.9103833  79.3761313  68.9445433  43.7413833  79.3011313
  68.5365433  42.5273833  79.7931313  69.0645433  42.9763833  79.4271313
  69.1105433  52.6203833  77.2761313  68.5185433  53.1783833  76.9631313
  69.5365433  52.3513833  76.5641313  69.0865433  52.6623833  77.1251313
  74.9505433  50.4643833  74.7561313  74.3715433  50.1893833  75.3481313
  75.5745433  49.8553833  74.7811313  74.9575433  50.3343833  74.8471313
  72.2295433  37.7273833  79.8671313  71.7085433  37.0993833  79.5591313
  72.8205433  37.2903833  80.3381313  72.2405433  37.5693833  79.8911313
  70.6555433  51.2903833  75.2071313  71.3115433  50.7153833  75.2221313
  71.0445433  52.0393833  74.9861313  70.8105433  51.3153833  75.1771313
  71.4735433  49.7773833  78.7071313  71.8965433  49.4213833  78.0331313
  71.7975433  49.3553833  79.3991313  71.5835433  49.6623833  78.7101313
  74.7045433  52.6293833  78.0031313  75.5485433  52.7333833  77.8081313
  74.4075433  53.4473833  78.0711313  74.7855433  52.7653833  77.9841313
  69.5535433  39.6003833  74.6501313  69.4395433  38.7363833  74.6811313
  69.0785433  39.8943833  75.3201313  69.4665433  39.5163833  74.7531313
  77.4555433  40.1163833  77.8081313  77.5295433  40.6843833  77.1501313
  77.5765433  40.6083833  78.5181313  77.4835433  40.2733833  77.8161313
  72.0635433  35.9393833  76.1561313  72.5995433  36.6273833  76.1461313
  72.0665433  35.6653833  75.3281313  72.1425433  36.0003833  76.0321313
  75.0195433  46.3723833  80.1811313  75.1915433  46.1623833  81.0101313
  74.3645433  45.8383833  79.9651313  74.9485433  46.2623833  80.2721313
  72.5115433  39.7493833  77.8101313  72.7835433  39.3193833  77.1021313
  72.3355433  39.1133833  78.3811313  72.5255433  39.5923833  77.7901313
  72.3355433  47.1763833  77.3591313  73.1865433  47.0963833  77.1861313
  71.9785433  46.4943833  76.9471313  72.4085433  47.0633833  77.2721313
  71.1025433  53.9013833  78.5961313  70.4295433  53.4033833  78.3511313
  71.5055433  54.0863833  77.8451313  71.0625433  53.8553833  78.4491313
  70.6525433  40.8513833  80.8921313  71.4955433  41.0713833  80.8491313
  70.2635433  41.4243833  80.3611313  70.7195433  40.9683833  80.8071313
  74.7035433  47.1833833  75.5941313  75.4165433  47.6783833  75.6841313
  74.9255433  46.6163833  74.9681313  74.8415433  47.1723833  75.5151313
  68.8595433  48.8263833  78.9141313  68.1925433  49.3143833  79.1901313
  69.5395433  49.3713833  78.9431313  68.8615433  48.9783833  78.9591313
  68.9255433  45.5103833  74.0171313  68.7405433  44.6713833  74.1691313
  69.5845433  45.4743833  73.4471313  68.9955433  45.3813833  73.9551313
  69.0975433  49.6743833  73.5921313  69.6495433  50.2433833  73.9561313
  68.8655433  49.1593833  74.2571313  69.1445433  49.6823833  73.7441313
  73.3015433  48.6743833  80.6811313  73.7685433  48.9633833  81.3591313
  73.8735433  48.1963833  80.2271313  73.4555433  48.6463833  80.7141313
  68.9275433  48.1233833  71.2201313  69.6835433  47.6913833  71.2781313
  68.9425433  48.6553833  71.9111313  69.0415433  48.1383833  71.3311313
  69.8675433  46.3443833  79.2251313  70.2985433  46.2153833  78.4781313
  69.6625433  47.1923833  79.1991313  69.9005433  46.4503833  79.1111313
  76.2135433  39.9083833  72.8751313  76.2115433  39.7913833  72.0101313
  76.0325433  40.7563833  72.9671313  76.1865433  40.0163833  72.7611313
  73.9515433  49.8603833  77.5071313  74.0775433  50.7033833  77.6941313
  74.6195433  49.4613833  77.9031313  74.0695433  49.9263833  77.5931313
  72.5665433  42.7403833  72.5091313  72.4385433  42.2923833  73.2471313
  71.9845433  42.3983833  71.9571313  72.4615433  42.6233833  72.5371313
  72.7335433  44.5703833  79.1081313  71.9525433  44.5113833  78.7251313
  72.8055433  43.8183833  79.5451313  72.6285433  44.4513833  79.1161313
  77.8335433  41.4593833  80.2081313  78.3135433  42.1583833  80.4161313
  78.2065433  40.8123833  80.6591313  77.9595433  41.4673833  80.3051313
  74.9445433  53.2273833  74.1551313  74.7975433  52.4513833  74.5261313
  75.6335433  53.0803833  73.6401313  75.0245433  53.0903833  74.1341313
  74.6155433  36.9703833  72.1431313  74.7125433  36.8633833  73.0041313
  73.9075433  37.4763833  72.0781313  74.5255433  37.0293833  72.2611313
  77.2365433  52.7433833  72.5571313  77.8585433  52.9063833  73.1471313
  77.2725433  53.4343833  72.0251313  77.3335433  52.8693833  72.5661313
  71.7375433  45.2773833  73.3861313  72.0615433  44.4983833  73.1641313
  72.3835433  45.6453833  73.8411313  71.8805433  45.2163833  73.4201313
  68.7345433  36.9383833  74.3541313  68.8635433  36.2303833  73.8621313
  68.3675433  36.6203833  75.0791313  68.6995433  36.7863833  74.3891313
  78.4275433  44.6193833  74.8111313  78.4865433  45.2693833  75.3901313
  78.2385433  43.9233833  75.3021313  78.4085433  44.6123833  74.9691313
  72.9235433  39.1363833  71.3231313  72.4125433  39.1893833  70.6171313
  73.7075433  39.3763833  71.0271313  72.9635433  39.1793833  71.1751313
  77.6505433  46.6663833  79.2421313  76.8035433  46.4723833  79.3231313
  77.9745433  46.5013833  80.0351313  77.5725433  46.6133833  79.3711313
  74.4025433  53.3963833  70.1281313  74.8415433  52.6993833  70.4161313
  74.6095433  54.0203833  70.7011313  74.4985433  53.3853833  70.2551313
  71.4985433  46.3593833  81.5581313  72.2205433  46.8473833  81.5211313
  71.2285433  46.3293833  80.7291313  71.5655433  46.4273833  81.4301313
  74.7285433  41.5303833  78.2931313  75.5745433  41.3403833  78.3911313
  74.3585433  40.7533833  78.1551313  74.7985433  41.3873833  78.2871313
  69.5495433  42.8683833  74.9481313  70.0385433  42.5763833  75.6091313
  69.6785433  42.2753833  74.3211313  69.6405433  42.7373833  74.9531313
  74.0745433  44.3023833  70.4341313  73.4645433  43.8973833  70.9081313
  73.6885433  44.4203833  69.6611313  73.9275433  44.2593833  70.3901313
  75.5295433  42.7633833  73.1441313  75.8015433  43.5893833  73.2111313
  74.6665433  42.8383833  73.0481313  75.4425433  42.8963833  73.1391313
  69.0095433  38.7333833  79.6801313  69.0535433  39.0773833  78.8791313
  69.7645433  38.9703833  80.0471313  69.1275433  38.8193833  79.6161313
  77.4125433  53.0383833  77.1731313  77.9585433  53.7173833  77.2271313
  77.0625433  53.1203833  76.3781313  77.4415433  53.1513833  77.0631313
  75.5955433  51.2663833  80.5621313  74.9715433  51.8483833  80.3801313
  75.8435433  50.9803833  79.7761313  75.5395433  51.3103833  80.4191313
  77.1895433  46.0423833  70.4771313  76.3845433  45.8653833  70.1921313
  77.1565433  46.8933833  70.6691313  77.0655433  46.1413833  70.4641313
  73.1195433  42.1093833  80.6271313  73.5595433  42.0063833  79.8811313
  73.6645433  41.7963833  81.2321313  73.2645433  42.0483833  80.6061313
  76.6665433  37.0943833  80.6741313  75.8405433  36.9453833  80.9111313
  76.6265433  37.1293833  79.8031313  76.5385433  37.0773833  80.5801313
  72.2955433  40.2363833  73.9341313  72.4215433  39.9073833  73.1361313
  71.4835433  39.9873833  74.1331313  72.1945433  40.1513833  73.8461313
  70.9005433  41.8573833  70.4671313  70.2285433  41.8713833  71.0231313
  70.9955433  41.0093833  70.2831313  70.8155433  41.7343833  70.5221313
  74.8885433  50.5623833  71.5811313  75.3295433  50.6423833  72.3291313
  74.0835433  50.3463833  71.8391313  74.8345433  50.5423833  71.7301313
  72.2175433  49.6323833  72.1821313  71.9735433  49.3253833  72.9621313
  72.1845433  48.9293833  71.6661313  72.1765433  49.4833833  72.2211313
  75.0365433  47.8773833  70.9251313  74.2185433  47.6093833  71.0651313
  75.0085433  48.7293833  71.1101313  74.9115433  47.9643833  70.9731313
  77.0385433  36.5193833  70.8891313  77.1165433  36.7663833  70.0561313
  76.2955433  36.8963833  71.1471313  76.9405433  36.6113833  70.8041313
  70.5095433  41.5873833  77.2881313  70.1415433  41.8893833  78.0191313
  71.0435433  40.9583833  77.5721313  70.5335433  41.5393833  77.4381313
  71.9835433  53.2623833  73.5741313  71.8385433  53.4183833  72.7281313
  72.8495433  53.3413833  73.6521313  72.0905433  53.2973833  73.4611313
  76.1505433  45.6593833  73.3021313  76.2505433  45.7983833  72.4471313
  76.9685433  45.5993833  73.5981313  76.2855433  45.6703833  73.2191313
  72.6705433  52.0773833  80.0511313  72.5915433  51.2673833  79.7351313
  72.2265433  52.5643833  79.4791313  72.5935433  52.0293833  79.9201313
  69.3585433  47.8933833  56.8998903  68.9175433  48.0113833  57.6428903
  69.0755433  47.1183833  56.6148903  69.2515433  47.7963833  56.9678903
  69.1015433  41.6853833  53.4068903  68.3235433  41.8473833  53.0468903
  69.1405433  40.8143833  53.4288903  68.9925433  41.5803833  53.3568903
  72.2405433  46.9483833  52.0788903  71.8485433  46.5773833  51.3928903
  72.1605433  46.3503833  52.7078903  72.1705433  46.8053833  52.0698903
  71.8675433  48.5893833  55.9788903  72.4755433  48.4193833  56.5818903
  71.1165433  48.4493833  56.3998903  71.8465433  48.5433833  56.1298903
  76.1495433  37.9243833  55.9278903  76.0795433  38.6013833  55.3818903
  76.8905433  37.5363833  55.6788903  76.2485433  37.9673833  55.8098903
  70.7585433  51.6803833  52.0558903  71.2255433  51.7643833  51.3238903
  71.2135433  51.1023833  52.5248903  70.8945433  51.6073833  52.0168903
  69.2985433  50.6283833  63.1548903  69.4275433  50.3483833  63.9708903
  68.6885433  50.0873833  62.8458903  69.2275433  50.5073833  63.2298903
  75.8725433  48.1533833  68.2218903  75.6365433  48.1503833  69.0618903
  75.1245433  48.0053833  67.7978903  75.7265433  48.1303833  68.2828903
  70.7445433  45.1493833  57.3568903  70.2825433  44.7573833  56.7298903
  71.4445433  44.6363833  57.4488903  70.7795433  45.0163833  57.2778903
  75.2525433  40.7593833  62.7038903  75.9305433  40.7773833  62.1548903
  75.2075433  39.9233833  62.9488903  75.3455433  40.6383833  62.6588903
  75.8545433  51.3453833  65.4848903  75.9925433  52.1053833  65.0778903
  76.6455433  50.9803833  65.5118903  75.9915433  51.4043833  65.4288903
  72.7455433  43.2493833  57.3798903  73.5625433  43.0623833  57.6228903
  72.2685433  42.6353833  57.7758903  72.7955433  43.1313833  57.4748903
  76.9495433  49.2303833  59.9898903  77.2975433  48.4313833  60.0198903
  77.6145433  49.7343833  59.7348903  77.0995433  49.1863833  59.9568903
  77.0065433  48.6793833  56.2008903  77.3375433  48.0353833  56.6868903
  77.2465433  48.4683833  55.3898903  77.0905433  48.5533833  56.1528903
  73.3425433  38.3433833  56.6458903  73.0465433  38.8443833  55.9958903
  74.2095433  38.4213833  56.5888903  73.4265433  38.4293833  56.5418903
  76.3215433  37.4853833  58.8688903  76.3945433  38.3453833  58.9978903
  76.2835433  37.4103833  58.0008903  76.3265433  37.6013833  58.7598903
  69.2005433  42.9103833  60.3698903  68.9445433  43.7413833  60.2948903
  68.5365433  42.5273833  60.7868903  69.0645433  42.9763833  60.4208903
  69.1105433  52.6203833  58.2698903  68.5185433  53.1783833  57.9568903
  69.5365433  52.3513833  57.5578903  69.0865433  52.6623833  58.1188903
  74.9505433  50.4643833  55.7498903  74.3715433  50.1893833  56.3418903
  75.5745433  49.8553833  55.7748903  74.9575433  50.3343833  55.8408903
  72.2295433  37.7273833  60.8608903  71.7085433  37.0993833  60.5528903
  72.8205433  37.2903833  61.3318903  72.2405433  37.5693833  60.8848903
  75.5355433  39.8603833  70.1588903  75.6525433  39.4063833  69.4228903
  75.8235433  40.6583833  69.9558903  75.5955433  39.9113833  70.0198903
  70.6555433  51.2903833  56.2008903  71.3115433  50.7153833  56.2158903
  71.0445433  52.0393833  55.9798903  70.8105433  51.3153833  56.1708903
  71.2685433  39.4573833  69.1428903  70.4905433  39.0673833  69.0708903
  71.7595433  39.0453833  68.5518903  71.2255433  39.3383833  69.0448903
  71.4735433  49.7773833  59.7008903  71.8965433  49.4213833  59.0268903
  71.7975433  49.3553833  60.3928903  71.5835433  49.6623833  59.7038903
  74.7045433  52.6293833  58.9968903  75.5485433  52.7333833  58.8018903
  74.4075433  53.4473833  59.0648903  74.7855433  52.7653833  58.9778903
  77.9175433  37.1003833  68.3108903  78.0955433  36.2913833  68.0358903
  77.7745433  37.5413833  67.5718903  77.9225433  37.0463833  68.1608903
  73.7025433  53.8483833  64.7368903  73.9945433  53.7813833  65.5568903
  73.0765433  53.2433833  64.6918903  73.6535433  53.7493833  64.8518903
  68.6165433  40.0053833  66.7288903  68.6125433  40.5923833  67.3748903
  69.2105433  40.3173833  66.1718903  68.7035433  40.1383833  66.7418903
  69.5535433  39.6003833  55.6438903  69.4395433  38.7363833  55.6748903
  69.0785433  39.8943833  56.3138903  69.4665433  39.5163833  55.7468903
  71.6955433  52.0103833  63.8588903  70.9975433  51.5023833  63.9848903
  71.9555433  51.8053833  63.0508903  71.6305433  51.9053833  63.7578903
  77.4555433  40.1163833  58.8018903  77.5295433  40.6843833  58.1438903
  77.5765433  40.6083833  59.5118903  77.4835433  40.2733833  58.8098903
  73.0565433  50.8613833  66.4258903  73.8975433  50.9243833  66.2038903
  73.0195433  51.2583833  67.2018903  73.1755433  50.9293833  66.5078903
  72.0635433  35.9393833  57.1498903  72.5995433  36.6273833  57.1398903
  72.0665433  35.6653833  56.3218903  72.1425433  36.0003833  57.0258903
  75.0195433  46.3723833  61.1748903  75.1915433  46.1623833  62.0038903
  74.3645433  45.8383833  60.9588903  74.9485433  46.2623833  61.2658903
  75.7695433  46.3103833  63.7648903  75.8225433  47.1573833  63.9668903
  75.4845433  45.9403833  64.5018903  75.7355433  46.3803833  63.9028903
  68.5905433  50.6813833  69.9758903  69.3465433  51.0303833  70.2338903
  68.7675433  49.8283833  69.9188903  68.7285433  50.6063833  70.0058903
  72.5115433  39.7493833  58.8038903  72.7835433  39.3193833  58.0958903
  72.3355433  39.1133833  59.3748903  72.5255433  39.5923833  58.7838903
  72.3355433  47.1763833  58.3528903  73.1865433  47.0963833  58.1798903
  71.9785433  46.4943833  57.9408903  72.4085433  47.0633833  58.2658903
  71.1025433  53.9013833  59.5898903  70.4295433  53.4033833  59.3448903
  71.5055433  54.0863833  58.8388903  71.0625433  53.8553833  59.4428903
  70.6525433  40.8513833  61.8858903  71.4955433  41.0713833  61.8428903
  70.2635433  41.4243833  61.3548903  70.7195433  40.9683833  61.8008903
  74.7035433  47.1833833  56.5878903  75.4165433  47.6783833  56.6778903
  74.9255433  46.6163833  55.9618903  74.8415433  47.1723833  56.5088903
  68.8595433  48.8263833  59.9078903  68.1925433  49.3143833  60.1838903
  69.5395433  49.3713833  59.9368903  68.8615433  48.9783833  59.9528903
  76.5065433  42.5363833  70.0038903  76.0225433  43.1133833  70.4458903
  76.4785433  42.8313833  69.1828903  76.4305433  42.6653833  69.9478903
  68.9255433  45.5103833  55.0108903  68.7405433  44.6713833  55.1628903
  69.5845433  45.4743833  54.4408903  68.9955433  45.3813833  54.9488903
  69.0975433  49.6743833  54.5858903  69.6495433  50.2433833  54.9498903
  68.8655433  49.1593833  55.2508903  69.1445433  49.6823833  54.7378903
  73.3015433  48.6743833  61.6748903  73.7685433  48.9633833  62.3528903
  73.8735433  48.1963833  61.2208903  73.4555433  48.6463833  61.7078903
  68.9275433  48.1233833  52.2138903  69.6835433  47.6913833  52.2718903
  68.9425433  48.6553833  52.9048903  69.0415433  48.1383833  52.3248903
  69.8675433  46.3443833  60.2188903  70.2985433  46.2153833  59.4718903
  69.6625433  47.1923833  60.1928903  69.9005433  46.4503833  60.1048903
  76.2135433  39.9083833  53.8688903  76.2115433  39.7913833  53.0038903
  76.0325433  40.7563833  53.9608903  76.1865433  40.0163833  53.7548903
  73.9515433  49.8603833  58.5008903  74.0775433  50.7033833  58.6878903
  74.6195433  49.4613833  58.8968903  74.0695433  49.9263833  58.5868903
  72.0815433  43.3433833  68.3628903  71.5455433  42.8373833  68.8308903
  72.1015433  42.9533833  67.5828903  72.0045433  43.2103833  68.3168903
  72.5665433  42.7403833  53.5028903  72.4385433  42.2923833  54.2408903
  71.9845433  42.3983833  52.9508903  72.4615433  42.6233833  53.5308903
  72.7335433  44.5703833  60.1018903  71.9525433  44.5113833  59.7188903
  72.8055433  43.8183833  60.5388903  72.6285433  44.4513833  60.1098903
  73.1635433  44.3073833  63.5698903  73.1885433  43.6323833  63.0188903
  72.5175433  44.8033833  63.2578903  73.0725433  44.2803833  63.4428903
  77.2635433  53.0843833  62.9618903  76.9865433  52.4433833  62.4388903
  77.0555433  53.8103833  62.5238903  77.1925433  53.0973833  62.8198903
  70.9625433  45.6623833  69.1288903  70.9255433  46.1633833  68.4148903
  71.2935433  44.9103833  68.8338903  71.0055433  45.6243833  68.9798903
  76.8615433  50.7123833  68.5638903  77.2155433  50.5343833  69.3408903
  76.4255433  49.9833833  68.3648903  76.8495433  50.5783833  68.6498903
  77.8335433  41.4593833  61.2018903  78.3135433  42.1583833  61.4098903
  78.2065433  40.8123833  61.6528903  77.9595433  41.4673833  61.2988903
  74.9445433  53.2273833  55.1488903  74.7975433  52.4513833  55.5198903
  75.6335433  53.0803833  54.6338903  75.0245433  53.0903833  55.1278903
  74.6155433  36.9703833  53.1368903  74.7125433  36.8633833  53.9978903
  73.9075433  37.4763833  53.0718903  74.5255433  37.0293833  53.2548903
  77.2365433  52.7433833  53.5508903  77.8585433  52.9063833  54.1408903
  77.2725433  53.4343833  53.0188903  77.3335433  52.8693833  53.5598903
  71.7375433  45.2773833  54.3798903  72.0615433  44.4983833  54.1578903
  72.3835433  45.6453833  54.8348903  71.8805433  45.2163833  54.4138903
  68.7345433  36.9383833  55.3478903  68.8635433  36.2303833  54.8558903
  68.3675433  36.6203833  56.0728903  68.6995433  36.7863833  55.3828903
  78.4275433  44.6193833  55.8048903  78.4865433  45.2693833  56.3838903
  78.2385433  43.9233833  56.2958903  78.4085433  44.6123833  55.9628903
  72.9235433  39.1363833  52.3168903  72.4125433  39.1893833  51.6108903
  73.7075433  39.3763833  52.0208903  72.9635433  39.1793833  52.1688903
  77.6505433  46.6663833  60.2358903  76.8035433  46.4723833  60.3168903
  77.9745433  46.5013833  61.0288903  77.5725433  46.6133833  60.3648903
  74.4025433  53.3963833  51.1218903  74.8415433  52.6993833  51.4098903
  74.6095433  54.0203833  51.6948903  74.4985433  53.3853833  51.2488903
  71.4985433  46.3593833  62.5518903  72.2205433  46.8473833  62.5148903
  71.2285433  46.3293833  61.7228903  71.5655433  46.4273833  62.4238903
  74.7285433  41.5303833  59.2868903  75.5745433  41.3403833  59.3848903
  74.3585433  40.7533833  59.1488903  74.7985433  41.3873833  59.2808903
  69.5495433  42.8683833  55.9418903  70.0385433  42.5763833  56.6028903
  69.6785433  42.2753833  55.3148903  69.6405433  42.7373833  55.9468903
  74.0745433  44.3023833  51.4278903  73.4645433  43.8973833  51.9018903
  73.6885433  44.4203833  50.6548903  73.9275433  44.2593833  51.3838903
  70.8935433  47.4113833  66.8298903  70.4725433  46.8933833  66.2688903
  70.5415433  48.1973833  66.6868903  70.7795433  47.4513833  66.7258903
  75.5295433  42.7633833  54.1378903  75.8015433  43.5893833  54.2048903
  74.6665433  42.8383833  54.0418903  75.4425433  42.8963833  54.1328903
  69.0095433  38.7333833  60.6738903  69.0535433  39.0773833  59.8728903
  69.7645433  38.9703833  61.0408903  69.1275433  38.8193833  60.6098903
  75.6325433  49.2223833  63.4478903  75.3345433  49.8143833  64.0148903
  75.6875433  49.6643833  62.6988903  75.5965433  49.3753833  63.4208903
  73.6115433  48.1723833  66.8458903  72.8055433  47.8823833  67.0128903
  73.5225433  49.0403833  66.8518903  73.4795433  48.2573833  66.8708903
  74.8585433  41.2483833  65.6798903  75.0195433  40.5043833  66.1068903
  74.8135433  40.9993833  64.8448903  74.8755433  41.1013833  65.6198903
  77.4125433  53.0383833  58.1668903  77.9585433  53.7173833  58.2208903
  77.0625433  53.1203833  57.3718903  77.4415433  53.1513833  58.0568903
  76.6105433  37.0563833  65.5598903  77.3155433  37.3763833  65.1578903
  76.8515433  36.2493833  65.7868903  76.7495433  36.9843833  65.5338903
  75.5955433  51.2663833  61.5558903  74.9715433  51.8483833  61.3738903
  75.8435433  50.9803833  60.7698903  75.5395433  51.3103833  61.4128903
  77.1895433  46.0423833  51.4708903  76.3845433  45.8653833  51.1858903
  77.1565433  46.8933833  51.6628903  77.0655433  46.1413833  51.4578903
  73.1195433  42.1093833  61.6208903  73.5595433  42.0063833  60.8748903
  73.6645433  41.7963833  62.2258903  73.2645433  42.0483833  61.5998903
  76.6665433  37.0943833  61.6678903  75.8405433  36.9453833  61.9048903
  76.6265433  37.1293833  60.7968903  76.5385433  37.0773833  61.5738903
  78.3075433  48.1343833  66.4558903  77.5125433  48.0703833  66.8068903
  78.3785433  48.9813833  66.2608903  78.2005433  48.2493833  66.4788903
  69.2315433  37.4923833  67.7028903  69.0915433  38.2873833  67.3718903
  68.4455433  37.2493833  67.9918903  69.0945433  37.5743833  67.6968903
  74.1375433  54.3413833  61.7728903  74.1485433  54.4003833  62.6428903
  73.7125433  53.5943833  61.6228903  74.0765433  54.2393833  61.8788903
  72.2955433  40.2363833  54.9278903  72.4215433  39.9073833  54.1298903
  71.4835433  39.9873833  55.1268903  72.1945433  40.1513833  54.8398903
  70.9015433  53.8393833  67.2148903  70.2475433  53.2703833  67.3128903
  70.5265433  54.6123833  67.3658903  70.7495433  53.8693833  67.2518903
  72.2725433  42.2473833  65.3438903  72.6475433  42.8663833  64.8568903
  72.9465433  41.7733833  65.6288903  72.4275433  42.2693833  65.3138903
  70.0475433  40.6953833  64.6188903  70.1245433  40.5263833  63.7658903
  70.7935433  41.1013833  64.8158903  70.1685433  40.7303833  64.5218903
  72.6015433  38.1053833  67.0298903  72.5205433  37.2613833  67.2358903
  72.2875433  38.1493833  66.2168903  72.5435433  37.9873833  66.9398903
  69.4445433  45.9213833  64.8428903  69.7645433  46.1403833  64.0618903
  69.3445433  45.0563833  64.7878903  69.4765433  45.8263833  64.7198903
  70.9005433  41.8573833  51.4608903  70.2285433  41.8713833  52.0168903
  70.9955433  41.0093833  51.2768903  70.8155433  41.7343833  51.5158903
  74.8885433  50.5623833  52.5748903  75.3295433  50.6423833  53.3228903
  74.0835433  50.3463833  52.8328903  74.8345433  50.5423833  52.7238903
  74.2075433  45.2133833  66.2278903  73.8115433  45.9873833  66.3028903
  73.8015433  44.8403833  65.5518903  74.0895433  45.2723833  66.1388903
  72.2175433  49.6323833  53.1758903  71.9735433  49.3253833  53.9558903
  72.1845433  48.9293833  52.6598903  72.1765433  49.4833833  53.2148903
  75.0365433  47.8773833  51.9188903  74.2185433  47.6093833  52.0588903
  75.0085433  48.7293833  52.1038903  74.9115433  47.9643833  51.9668903
  74.6365433  38.1903833  63.6778903  73.7725433  38.2743833  63.7578903
  74.8565433  37.6763833  64.3468903  74.5415433  38.1273833  63.7888903
  76.2425433  43.2673833  67.2558903  75.9205433  42.6913833  66.6858903
  75.8835433  44.0223833  67.0098903  76.1425433  43.2933833  67.1358903
  77.0385433  36.5193833  51.8828903  77.1165433  36.7663833  51.0498903
  76.2955433  36.8963833  52.1408903  76.9405433  36.6113833  51.7978903
  74.6775433  53.6233833  67.5038903  74.7185433  53.7493833  68.3668903
  75.3285433  53.0633833  67.3478903  74.7795433  53.5593833  67.6088903
  71.8565433  38.2733833  64.3258903  71.5135433  37.5063833  64.0918903
  71.1615433  38.7973833  64.3898903  71.7035433  38.2373833  64.3008903
  72.2705433  52.0063833  68.8638903  72.8655433  52.4373833  69.3358903
  71.9065433  52.6303833  68.3748903  72.3045433  52.1623833  68.8608903
  70.5095433  41.5873833  58.2818903  70.1415433  41.8893833  59.0128903
  71.0435433  40.9583833  58.5658903  70.5335433  41.5393833  58.4318903
  70.1975433  49.9953833  65.7928903  69.6235433  50.4113833  66.3018903
  70.9305433  50.4603833  65.8878903  70.2215433  50.1253833  65.8818903
  71.9835433  53.2623833  54.5678903  71.8385433  53.4183833  53.7218903
  72.8495433  53.3413833  54.6458903  72.0905433  53.2973833  54.4548903
  76.1505433  45.6593833  54.2958903  76.2505433  45.7983833  53.4408903
  76.9685433  45.5993833  54.5918903  76.2855433  45.6703833  54.2128903
  75.2895433  38.6343833  67.4118903  75.5235433  38.0583833  66.7988903
  74.4475433  38.4533833  67.5528903  75.1995433  38.5223833  67.3418903
  72.6705433  52.0773833  61.0448903  72.5915433  51.2673833  60.7288903
  72.2265433  52.5643833  60.4728903  72.5935433  52.0293833  60.9138903
  70.2425433  54.3213833  64.6258903  70.7355433  54.2653833  65.3438903
  70.4305433  53.5883833  64.1908903  70.3435433  54.2043833  64.6678903
  69.3585433  47.8933833  37.8936493  68.9175433  48.0113833  38.6366493
  69.0755433  47.1183833  37.6086493  69.2515433  47.7963833  37.9616493
  69.1015433  41.6853833  34.4006493  68.3235433  41.8473833  34.0406493
  69.1405433  40.8143833  34.4226493  68.9925433  41.5803833  34.3506493
  72.2405433  46.9483833  33.0726493  71.8485433  46.5773833  32.3866493
  72.1605433  46.3503833  33.7016493  72.1705433  46.8053833  33.0636493
  71.8675433  48.5893833  36.9726493  72.4755433  48.4193833  37.5756493
  71.1165433  48.4493833  37.3936493  71.8465433  48.5433833  37.1236493
  76.1495433  37.9243833  36.9216493  76.0795433  38.6013833  36.3756493
  76.8905433  37.5363833  36.6726493  76.2485433  37.9673833  36.8036493
  70.7585433  51.6803833  33.0496493  71.2255433  51.7643833  32.3176493
  71.2135433  51.1023833  33.5186493  70.8945433  51.6073833  33.0106493
  69.2985433  50.6283833  44.1486493  69.4275433  50.3483833  44.9646493
  68.6885433  50.0873833  43.8396493  69.2275433  50.5073833  44.2236493
  75.8725433  48.1533833  49.2156493  75.6365433  48.1503833  50.0556493
  75.1245433  48.0053833  48.7916493  75.7265433  48.1303833  49.2766493
  70.7445433  45.1493833  38.3506493  70.2825433  44.7573833  37.7236493
  71.4445433  44.6363833  38.4426493  70.7795433  45.0163833  38.2716493
  75.2525433  40.7593833  43.6976493  75.9305433  40.7773833  43.1486493
  75.2075433  39.9233833  43.9426493  75.3455433  40.6383833  43.6526493
  75.8545433  51.3453833  46.4786493  75.9925433  52.1053833  46.0716493
  76.6455433  50.9803833  46.5056493  75.9915433  51.4043833  46.4226493
  72.7455433  43.2493833  38.3736493  73.5625433  43.0623833  38.6166493
  72.2685433  42.6353833  38.7696493  72.7955433  43.1313833  38.4686493
  76.9495433  49.2303833  40.9836493  77.2975433  48.4313833  41.0136493
  77.6145433  49.7343833  40.7286493  77.0995433  49.1863833  40.9506493
  77.0065433  48.6793833  37.1946493  77.3375433  48.0353833  37.6806493
  77.2465433  48.4683833  36.3836493  77.0905433  48.5533833  37.1466493
  73.3425433  38.3433833  37.6396493  73.0465433  38.8443833  36.9896493
  74.2095433  38.4213833  37.5826493  73.4265433  38.4293833  37.5356493
  76.3215433  37.4853833  39.8626493  76.3945433  38.3453833  39.9916493
  76.2835433  37.4103833  38.9946493  76.3265433  37.6013833  39.7536493
  69.2005433  42.9103833  41.3636493  68.9445433  43.7413833  41.2886493
  68.5365433  42.5273833  41.7806493  69.0645433  42.9763833  41.4146493
  69.1105433  52.6203833  39.2636493  68.5185433  53.1783833  38.9506493
  69.5365433  52.3513833  38.5516493  69.0865433  52.6623833  39.1126493
  74.9505433  50.4643833  36.7436493  74.3715433  50.1893833  37.3356493
  75.5745433  49.8553833  36.7686493  74.9575433  50.3343833  36.8346493
  72.2295433  37.7273833  41.8546493  71.7085433  37.0993833  41.5466493
  72.8205433  37.2903833  42.3256493  72.2405433  37.5693833  41.8786493
  75.5355433  39.8603833  51.1526493  75.6525433  39.4063833  50.4166493
  75.8235433  40.6583833  50.9496493  75.5955433  39.9113833  51.0136493
  70.6555433  51.2903833  37.1946493  71.3115433  50.7153833  37.2096493
  71.0445433  52.0393833  36.9736493  70.8105433  51.3153833  37.1646493
  71.2685433  39.4573833  50.1366493  70.4905433  39.0673833  50.0646493
  71.7595433  39.0453833  49.5456493  71.2255433  39.3383833  50.0386493
  71.4735433  49.7773833  40.6946493  71.8965433  49.4213833  40.0206493
  71.7975433  49.3553833  41.3866493  71.5835433  49.6623833  40.6976493
  74.7045433  52.6293833  39.9906493  75.5485433  52.7333833  39.7956493
  74.4075433  53.4473833  40.0586493  74.7855433  52.7653833  39.9716493
  77.9175433  37.1003833  49.3046493  78.0955433  36.2913833  49.0296493
  77.7745433  37.5413833  48.5656493  77.9225433  37.0463833  49.1546493
  73.7025433  53.8483833  45.7306493  73.9945433  53.7813833  46.5506493
  73.0765433  53.2433833  45.6856493  73.6535433  53.7493833  45.8456493
  68.6165433  40.0053833  47.7226493  68.6125433  40.5923833  48.3686493
  69.2105433  40.3173833  47.1656493  68.7035433  40.1383833  47.7356493
  69.5535433  39.6003833  36.6376493  69.4395433  38.7363833  36.6686493
  69.0785433  39.8943833  37.3076493  69.4665433  39.5163833  36.7406493
  71.6955433  52.0103833  44.8526493  70.9975433  51.5023833  44.9786493
  71.9555433  51.8053833  44.0446493  71.6305433  51.9053833  44.7516493
  77.4555433  40.1163833  39.7956493  77.5295433  40.6843833  39.1376493
  77.5765433  40.6083833  40.5056493  77.4835433  40.2733833  39.8036493
  73.0565433  50.8613833  47.4196493  73.8975433  50.9243833  47.1976493
  73.0195433  51.2583833  48.1956493  73.1755433  50.9293833  47.5016493
  72.0635433  35.9393833  38.1436493  72.5995433  36.6273833  38.1336493
  72.0665433  35.6653833  37.3156493  72.1425433  36.0003833  38.0196493
  75.0195433  46.3723833  42.1686493  75.1915433  46.1623833  42.9976493
  74.3645433  45.8383833  41.9526493  74.9485433  46.2623833  42.2596493
  75.7695433  46.3103833  44.7586493  75.8225433  47.1573833  44.9606493
  75.4845433  45.9403833  45.4956493  75.7355433  46.3803833  44.8966493
  68.5905433  50.6813833  50.9696493  69.3465433  51.0303833  51.2276493
  68.7675433  49.8283833  50.9126493  68.7285433  50.6063833  50.9996493
  72.5115433  39.7493833  39.7976493  72.7835433  39.3193833  39.0896493
  72.3355433  39.1133833  40.3686493  72.5255433  39.5923833  39.7776493
  72.3355433  47.1763833  39.3466493  73.1865433  47.0963833  39.1736493
  71.9785433  46.4943833  38.9346493  72.4085433  47.0633833  39.2596493
  71.1025433  53.9013833  40.5836493  70.4295433  53.4033833  40.3386493
  71.5055433  54.0863833  39.8326493  71.0625433  53.8553833  40.4366493
  70.6525433  40.8513833  42.8796493  71.4955433  41.0713833  42.8366493
  70.2635433  41.4243833  42.3486493  70.7195433  40.9683833  42.7946493
  74.7035433  47.1833833  37.5816493  75.4165433  47.6783833  37.6716493
  74.9255433  46.6163833  36.9556493  74.8415433  47.1723833  37.5026493
  68.8595433  48.8263833  40.9016493  68.1925433  49.3143833  41.1776493
  69.5395433  49.3713833  40.9306493  68.8615433  48.9783833  40.9466493
  76.5065433  42.5363833  50.9976493  76.0225433  43.1133833  51.4396493
  76.4785433  42.8313833  50.1766493  76.4305433  42.6653833  50.9416493
  68.9255433  45.5103833  36.0046493  68.7405433  44.6713833  36.1566493
  69.5845433  45.4743833  35.4346493  68.9955433  45.3813833  35.9426493
  69.0975433  49.6743833  35.5796493  69.6495433  50.2433833  35.9436493
  68.8655433  49.1593833  36.2446493  69.1445433  49.6823833  35.7316493
  73.3015433  48.6743833  42.6686493  73.7685433  48.9633833  43.3466493
  73.8735433  48.1963833  42.2146493  73.4555433  48.6463833  42.7016493
  68.9275433  48.1233833  33.2076493  69.6835433  47.6913833  33.2656493
  68.9425433  48.6553833  33.8986493  69.0415433  48.1383833  33.3186493
  69.8675433  46.3443833  41.2126493  70.2985433  46.2153833  40.4656493
  69.6625433  47.1923833  41.1866493  69.9005433  46.4503833  41.0986493
  76.2135433  39.9083833  34.8626493  76.2115433  39.7913833  33.9976493
  76.0325433  40.7563833  34.9546493  76.1865433  40.0163833  34.7486493
  73.9515433  49.8603833  39.4946493  74.0775433  50.7033833  39.6816493
  74.6195433  49.4613833  39.8906493  74.0695433  49.9263833  39.5806493
  72.0815433  43.3433833  49.3566493  71.5455433  42.8373833  49.8246493
  72.1015433  42.9533833  48.5766493  72.0045433  43.2103833  49.3106493
  72.5665433  42.7403833  34.4966493  72.4385433  42.2923833  35.2346493
  71.9845433  42.3983833  33.9446493  72.4615433  42.6233833  34.5246493
  72.7335433  44.5703833  41.0956493  71.9525433  44.5113833  40.7126493
  72.8055433  43.8183833  41.5326493  72.6285433  44.4513833  41.1036493
  73.1635433  44.3073833  44.5636493  73.1885433  43.6323833  44.0126493
  72.5175433  44.8033833  44.2516493  73.0725433  44.2803833  44.4366493
  77.2635433  53.0843833  43.9556493  76.9865433  52.4433833  43.4326493
  77.0555433  53.8103833  43.5176493  77.1925433  53.0973833  43.8136493
  70.9625433  45.6623833  50.1226493  70.9255433  46.1633833  49.4086493
  71.2935433  44.9103833  49.8276493  71.0055433  45.6243833  49.9736493
  76.8615433  50.7123833  49.5576493  77.2155433  50.5343833  50.3346493
  76.4255433  49.9833833  49.3586493  76.8495433  50.5783833  49.6436493
  77.8335433  41.4593833  42.1956493  78.3135433  42.1583833  42.4036493
  78.2065433  40.8123833  42.6466493  77.9595433  41.4673833  42.2926493
  74.9445433  53.2273833  36.1426493  74.7975433  52.4513833  36.5136493
  75.6335433  53.0803833  35.6276493  75.0245433  53.0903833  36.1216493
  74.6155433  36.9703833  34.1306493  74.7125433  36.8633833  34.9916493
  73.9075433  37.4763833  34.0656493  74.5255433  37.0293833  34.2486493
  77.2365433  52.7433833  34.5446493  77.8585433  52.9063833  35.1346493
  77.2725433  53.4343833  34.0126493  77.3335433  52.8693833  34.5536493
  71.7375433  45.2773833  35.3736493  72.0615433  44.4983833  35.1516493
  72.3835433  45.6453833  35.8286493  71.8805433  45.2163833  35.4076493
  68.7345433  36.9383833  36.3416493  68.8635433  36.2303833  35.8496493
  68.3675433  36.6203833  37.0666493  68.6995433  36.7863833  36.3766493
  78.4275433  44.6193833  36.7986493  78.4865433  45.2693833  37.3776493
  78.2385433  43.9233833  37.2896493  78.4085433  44.6123833  36.9566493
  72.9235433  39.1363833  33.3106493  72.4125433  39.1893833  32.6046493
  73.7075433  39.3763833  33.0146493  72.9635433  39.1793833  33.1626493
  77.6505433  46.6663833  41.2296493  76.8035433  46.4723833  41.3106493
  77.9745433  46.5013833  42.0226493  77.5725433  46.6133833  41.3586493
  74.4025433  53.3963833  32.1156493  74.8415433  52.6993833  32.4036493
  74.6095433  54.0203833  32.6886493  74.4985433  53.3853833  32.2426493
  71.4985433  46.3593833  43.5456493  72.2205433  46.8473833  43.5086493
  71.2285433  46.3293833  42.7166493  71.5655433  46.4273833  43.4176493
  74.7285433  41.5303833  40.2806493  75.5745433  41.3403833  40.3786493
  74.3585433  40.7533833  40.1426493  74.7985433  41.3873833  40.2746493
  69.5495433  42.8683833  36.9356493  70.0385433  42.5763833  37.5966493
  69.6785433  42.2753833  36.3086493  69.6405433  42.7373833  36.9406493
  74.0745433  44.3023833  32.4216493  73.4645433  43.8973833  32.8956493
  73.6885433  44.4203833  31.6486493  73.9275433  44.2593833  32.3776493
  70.8935433  47.4113833  47.8236493  70.4725433  46.8933833  47.2626493
  70.5415433  48.1973833  47.6806493  70.7795433  47.4513833  47.7196493
  75.5295433  42.7633833  35.1316493  75.8015433  43.5893833  35.1986493
  74.6665433  42.8383833  35.0356493  75.4425433  42.8963833  35.1266493
  69.0095433  38.7333833  41.6676493  69.0535433  39.0773833  40.8666493
  69.7645433  38.9703833  42.0346493  69.1275433  38.8193833  41.6036493
  75.6325433  49.2223833  44.4416493  75.3345433  49.8143833  45.0086493
  75.6875433  49.6643833  43.6926493  75.5965433  49.3753833  44.4146493
  73.6115433  48.1723833  47.8396493  72.8055433  47.8823833  48.0066493
  73.5225433  49.0403833  47.8456493  73.4795433  48.2573833  47.8646493
  74.8585433  41.2483833  46.6736493  75.0195433  40.5043833  47.1006493
  74.8135433  40.9993833  45.8386493  74.8755433  41.1013833  46.6136493
  77.4125433  53.0383833  39.1606493  77.9585433  53.7173833  39.2146493
  77.0625433  53.1203833  38.3656493  77.4415433  53.1513833  39.0506493
  76.6105433  37.0563833  46.5536493  77.3155433  37.3763833  46.1516493
  76.8515433  36.2493833  46.7806493  76.7495433  36.9843833  46.5276493
  75.5955433  51.2663833  42.5496493  74.9715433  51.8483833  42.3676493
  75.8435433  50.9803833  41.7636493  75.5395433  51.3103833  42.4066493
  77.1895433  46.0423833  32.4646493  76.3845433  45.8653833  32.1796493
  77.1565433  46.8933833  32.6566493  77.0655433  46.1413833  32.4516493
  73.1195433  42.1093833  42.6146493  73.5595433  42.0063833  41.8686493
  73.6645433  41.7963833  43.2196493  73.2645433  42.0483833  42.5936493
  76.6665433  37.0943833  42.6616493  75.8405433  36.9453833  42.8986493
  76.6265433  37.1293833  41.7906493  76.5385433  37.0773833  42.5676493
  78.3075433  48.1343833  47.4496493  77.5125433  48.0703833  47.8006493
  78.3785433  48.9813833  47.2546493  78.2005433  48.2493833  47.4726493
  69.2315433  37.4923833  48.6966493  69.0915433  38.2873833  48.3656493
  68.4455433  37.2493833  48.9856493  69.0945433  37.5743833  48.6906493
  74.1375433  54.3413833  42.7666493  74.1485433  54.4003833  43.6366493
  73.7125433  53.5943833  42.6166493  74.0765433  54.2393833  42.8726493
  72.2955433  40.2363833  35.9216493  72.4215433  39.9073833  35.1236493
  71.4835433  39.9873833  36.1206493  72.1945433  40.1513833  35.8336493
  70.9015433  53.8393833  48.2086493  70.2475433  53.2703833  48.3066493
  70.5265433  54.6123833  48.3596493  70.7495433  53.8693833  48.2456493
  72.2725433  42.2473833  46.3376493  72.6475433  42.8663833  45.8506493
  72.9465433  41.7733833  46.6226493  72.4275433  42.2693833  46.3076493
  70.0475433  40.6953833  45.6126493  70.1245433  40.5263833  44.7596493
  70.7935433  41.1013833  45.8096493  70.1685433  40.7303833  45.5156493
  72.6015433  38.1053833  48.0236493  72.5205433  37.2613833  48.2296493
  72.2875433  38.1493833  47.2106493  72.5435433  37.9873833  47.9336493
  69.4445433  45.9213833  45.8366493  69.7645433  46.1403833  45.0556493
  69.3445433  45.0563833  45.7816493  69.4765433  45.8263833  45.7136493
  70.9005433  41.8573833  32.4546493  70.2285433  41.8713833  33.0106493
  70.9955433  41.0093833  32.2706493  70.8155433  41.7343833  32.5096493
  74.8885433  50.5623833  33.5686493  75.3295433  50.6423833  34.3166493
  74.0835433  50.3463833  33.8266493  74.8345433  50.5423833  33.7176493
  74.2075433  45.2133833  47.2216493  73.8115433  45.9873833  47.2966493
  73.8015433  44.8403833  46.5456493  74.0895433  45.2723833  47.1326493
  72.2175433  49.6323833  34.1696493  71.9735433  49.3253833  34.9496493
  72.1845433  48.9293833  33.6536493  72.1765433  49.4833833  34.2086493
  75.0365433  47.8773833  32.9126493  74.2185433  47.6093833  33.0526493
  75.0085433  48.7293833  33.0976493  74.9115433  47.9643833  32.9606493
  74.6365433  38.1903833  44.6716493  73.7725433  38.2743833  44.7516493
  74.8565433  37.6763833  45.3406493  74.5415433  38.1273833  44.7826493
  76.2425433  43.2673833  48.2496493  75.9205433  42.6913833  47.6796493
  75.8835433  44.0223833  48.0036493  76.1425433  43.2933833  48.1296493
  77.0385433  36.5193833  32.8766493  77.1165433  36.7663833  32.0436493
  76.2955433  36.8963833  33.1346493  76.9405433  36.6113833  32.7916493
  74.6775433  53.6233833  48.4976493  74.7185433  53.7493833  49.3606493
  75.3285433  53.0633833  48.3416493  74.7795433  53.5593833  48.6026493
  71.8565433  38.2733833  45.3196493  71.5135433  37.5063833  45.0856493
  71.1615433  38.7973833  45.3836493  71.7035433  38.2373833  45.2946493
  72.2705433  52.0063833  49.8576493  72.8655433  52.4373833  50.3296493
  71.9065433  52.6303833  49.3686493  72.3045433  52.1623833  49.8546493
  70.5095433  41.5873833  39.2756493  70.1415433  41.8893833  40.0066493
  71.0435433  40.9583833  39.5596493  70.5335433  41.5393833  39.4256493
  70.1975433  49.9953833  46.7866493  69.6235433  50.4113833  47.2956493
  70.9305433  50.4603833  46.8816493  70.2215433  50.1253833  46.8756493
  71.9835433  53.2623833  35.5616493  71.8385433  53.4183833  34.7156493
  72.8495433  53.3413833  35.6396493  72.0905433  53.2973833  35.4486493
  76.1505433  45.6593833  35.2896493  76.2505433  45.7983833  34.4346493
  76.9685433  45.5993833  35.5856493  76.2855433  45.6703833  35.2066493
  75.2895433  38.6343833  48.4056493  75.5235433  38.0583833  47.7926493
  74.4475433  38.4533833  48.5466493  75.1995433  38.5223833  48.3356493
  72.6705433  52.0773833  42.0386493  72.5915433  51.2673833  41.7226493
  72.2265433  52.5643833  41.4666493  72.5935433  52.0293833  41.9076493
  70.2425433  54.3213833  45.6196493  70.7355433  54.2653833  46.3376493
  70.4305433  53.5883833  45.1846493  70.3435433  54.2043833  45.6616493
  69.3585433  47.8933833  18.8874083  68.9175433  48.0113833  19.6304083
  69.0755433  47.1183833  18.6024083  69.2515433  47.7963833  18.9554083
  69.1015433  41.6853833  15.3944083  68.3235433  41.8473833  15.0344083
  69.1405433  40.8143833  15.4164083  68.9925433  41.5803833  15.3444083
  72.2405433  46.9483833  14.0664083  71.8485433  46.5773833  13.3804083
  72.1605433  46.3503833  14.6954083  72.1705433  46.8053833  14.0574083
  71.8675433  48.5893833  17.9664083  72.4755433  48.4193833  18.5694083
  71.1165433  48.4493833  18.3874083  71.8465433  48.5433833  18.1174083
  76.1495433  37.9243833  17.9154083  76.0795433  38.6013833  17.3694083
  76.8905433  37.5363833  17.6664083  76.2485433  37.9673833  17.7974083
  70.7585433  51.6803833  14.0434083  71.2255433  51.7643833  13.3114083
  71.2135433  51.1023833  14.5124083  70.8945433  51.6073833  14.0044083
  69.2985433  50.6283833  25.1424083  69.4275433  50.3483833  25.9584083
  68.6885433  50.0873833  24.8334083  69.2275433  50.5073833  25.2174083
  75.8725433  48.1533833  30.2094083  75.6365433  48.1503833  31.0494083
  75.1245433  48.0053833  29.7854083  75.7265433  48.1303833  30.2704083
  70.7445433  45.1493833  19.3444083  70.2825433  44.7573833  18.7174083
  71.4445433  44.6363833  19.4364083  70.7795433  45.0163833  19.2654083
  75.2525433  40.7593833  24.6914083  75.9305433  40.7773833  24.1424083
  75.2075433  39.9233833  24.9364083  75.3455433  40.6383833  24.6464083
  75.8545433  51.3453833  27.4724083  75.9925433  52.1053833  27.0654083
  76.6455433  50.9803833  27.4994083  75.9915433  51.4043833  27.4164083
  72.7455433  43.2493833  19.3674083  73.5625433  43.0623833  19.6104083
  72.2685433  42.6353833  19.7634083  72.7955433  43.1313833  19.4624083
  76.9495433  49.2303833  21.9774083  77.2975433  48.4313833  22.0074083
  77.6145433  49.7343833  21.7224083  77.0995433  49.1863833  21.9444083
  77.0065433  48.6793833  18.1884083  77.3375433  48.0353833  18.6744083
  77.2465433  48.4683833  17.3774083  77.0905433  48.5533833  18.1404083
  73.3425433  38.3433833  18.6334083  73.0465433  38.8443833  17.9834083
  74.2095433  38.4213833  18.5764083  73.4265433  38.4293833  18.5294083
  76.3215433  37.4853833  20.8564083  76.3945433  38.3453833  20.9854083
  76.2835433  37.4103833  19.9884083  76.3265433  37.6013833  20.7474083
  69.2005433  42.9103833  22.3574083  68.9445433  43.7413833  22.2824083
  68.5365433  42.5273833  22.7744083  69.0645433  42.9763833  22.4084083
  69.1105433  52.6203833  20.2574083  68.5185433  53.1783833  19.9444083
  69.5365433  52.3513833  19.5454083  69.0865433  52.6623833  20.1064083
  74.9505433  50.4643833  17.7374083  74.3715433  50.1893833  18.3294083
  75.5745433  49.8553833  17.7624083  74.9575433  50.3343833  17.8284083
  72.2295433  37.7273833  22.8484083  71.7085433  37.0993833  22.5404083
  72.8205433  37.2903833  23.3194083  72.2405433  37.5693833  22.8724083
  75.5355433  39.8603833  32.1464083  75.6525433  39.4063833  31.4104083
  75.8235433  40.6583833  31.9434083  75.5955433  39.9113833  32.0074083
  70.6555433  51.2903833  18.1884083  71.3115433  50.7153833  18.2034083
  71.0445433  52.0393833  17.9674083  70.8105433  51.3153833  18.1584083
  71.2685433  39.4573833  31.1304083  70.4905433  39.0673833  31.0584083
  71.7595433  39.0453833  30.5394083  71.2255433  39.3383833  31.0324083
  71.4735433  49.7773833  21.6884083  71.8965433  49.4213833  21.0144083
  71.7975433  49.3553833  22.3804083  71.5835433  49.6623833  21.6914083
  74.7045433  52.6293833  20.9844083  75.5485433  52.7333833  20.7894083
  74.4075433  53.4473833  21.0524083  74.7855433  52.7653833  20.9654083
  77.9175433  37.1003833  30.2984083  78.0955433  36.2913833  30.0234083
  77.7745433  37.5413833  29.5594083  77.9225433  37.0463833  30.1484083
  73.7025433  53.8483833  26.7244083  73.9945433  53.7813833  27.5444083
  73.0765433  53.2433833  26.6794083  73.6535433  53.7493833  26.8394083
  68.6165433  40.0053833  28.7164083  68.6125433  40.5923833  29.3624083
  69.2105433  40.3173833  28.1594083  68.7035433  40.1383833  28.7294083
  69.5535433  39.6003833  17.6314083  69.4395433  38.7363833  17.6624083
  69.0785433  39.8943833  18.3014083  69.4665433  39.5163833  17.7344083
  71.6955433  52.0103833  25.8464083  70.9975433  51.5023833  25.9724083
  71.9555433  51.8053833  25.0384083  71.6305433  51.9053833  25.7454083
  77.4555433  40.1163833  20.7894083  77.5295433  40.6843833  20.1314083
  77.5765433  40.6083833  21.4994083  77.4835433  40.2733833  20.7974083
  73.0565433  50.8613833  28.4134083  73.8975433  50.9243833  28.1914083
  73.0195433  51.2583833  29.1894083  73.1755433  50.9293833  28.4954083
  72.0635433  35.9393833  19.1374083  72.5995433  36.6273833  19.1274083
  72.0665433  35.6653833  18.3094083  72.1425433  36.0003833  19.0134083
  75.0195433  46.3723833  23.1624083  75.1915433  46.1623833  23.9914083
  74.3645433  45.8383833  22.9464083  74.9485433  46.2623833  23.2534083
  75.7695433  46.3103833  25.7524083  75.8225433  47.1573833  25.9544083
  75.4845433  45.9403833  26.4894083  75.7355433  46.3803833  25.8904083
  68.5905433  50.6813833  31.9634083  69.3465433  51.0303833  32.2214083
  68.7675433  49.8283833  31.9064083  68.7285433  50.6063833  31.9934083
  72.5115433  39.7493833  20.7914083  72.7835433  39.3193833  20.0834083
  72.3355433  39.1133833  21.3624083  72.5255433  39.5923833  20.7714083
  72.3355433  47.1763833  20.3404083  73.1865433  47.0963833  20.1674083
  71.9785433  46.4943833  19.9284083  72.4085433  47.0633833  20.2534083
  71.1025433  53.9013833  21.5774083  70.4295433  53.4033833  21.3324083
  71.5055433  54.0863833  20.8264083  71.0625433  53.8553833  21.4304083
  70.6525433  40.8513833  23.8734083  71.4955433  41.0713833  23.8304083
  70.2635433  41.4243833  23.3424083  70.7195433  40.9683833  23.7884083
  74.7035433  47.1833833  18.5754083  75.4165433  47.6783833  18.6654083
  74.9255433  46.6163833  17.9494083  74.8415433  47.1723833  18.4964083
  68.8595433  48.8263833  21.8954083  68.1925433  49.3143833  22.1714083
  69.5395433  49.3713833  21.9244083  68.8615433  48.9783833  21.9404083
  76.5065433  42.5363833  31.9914083  76.0225433  43.1133833  32.4334083
  76.4785433  42.8313833  31.1704083  76.4305433  42.6653833  31.9354083
  68.9255433  45.5103833  16.9984083  68.7405433  44.6713833  17.1504083
  69.5845433  45.4743833  16.4284083  68.9955433  45.3813833  16.9364083
  69.0975433  49.6743833  16.5734083  69.6495433  50.2433833  16.9374083
  68.8655433  49.1593833  17.2384083  69.1445433  49.6823833  16.7254083
  73.3015433  48.6743833  23.6624083  73.7685433  48.9633833  24.3404083
  73.8735433  48.1963833  23.2084083  73.4555433  48.6463833  23.6954083
  68.9275433  48.1233833  14.2014083  69.6835433  47.6913833  14.2594083
  68.9425433  48.6553833  14.8924083  69.0415433  48.1383833  14.3124083
  69.8675433  46.3443833  22.2064083  70.2985433  46.2153833  21.4594083
  69.6625433  47.1923833  22.1804083  69.9005433  46.4503833  22.0924083
  76.2135433  39.9083833  15.8564083  76.2115433  39.7913833  14.9914083
  76.0325433  40.7563833  15.9484083  76.1865433  40.0163833  15.7424083
  73.9515433  49.8603833  20.4884083  74.0775433  50.7033833  20.6754083
  74.6195433  49.4613833  20.8844083  74.0695433  49.9263833  20.5744083
  72.0815433  43.3433833  30.3504083  71.5455433  42.8373833  30.8184083
  72.1015433  42.9533833  29.5704083  72.0045433  43.2103833  30.3044083
  72.5665433  42.7403833  15.4904083  72.4385433  42.2923833  16.2284083
  71.9845433  42.3983833  14.9384083  72.4615433  42.6233833  15.5184083
  72.7335433  44.5703833  22.0894083  71.9525433  44.5113833  21.7064083
  72.8055433  43.8183833  22.5264083  72.6285433  44.4513833  22.0974083
  73.1635433  44.3073833  25.5574083  73.1885433  43.6323833  25.0064083
  72.5175433  44.8033833  25.2454083  73.0725433  44.2803833  25.4304083
  77.2635433  53.0843833  24.9494083  76.9865433  52.4433833  24.4264083
  77.0555433  53.8103833  24.5114083  77.1925433  53.0973833  24.8074083
  70.9625433  45.6623833  31.1164083  70.9255433  46.1633833  30.4024083
  71.2935433  44.9103833  30.8214083  71.0055433  45.6243833  30.9674083
  76.8615433  50.7123833  30.5514083  77.2155433  50.5343833  31.3284083
  76.4255433  49.9833833  30.3524083  76.8495433  50.5783833  30.6374083
  77.8335433  41.4593833  23.1894083  78.3135433  42.1583833  23.3974083
  78.2065433  40.8123833  23.6404083  77.9595433  41.4673833  23.2864083
  74.9445433  53.2273833  17.1364083  74.7975433  52.4513833  17.5074083
  75.6335433  53.0803833  16.6214083  75.0245433  53.0903833  17.1154083
  74.6155433  36.9703833  15.1244083  74.7125433  36.8633833  15.9854083
  73.9075433  37.4763833  15.0594083  74.5255433  37.0293833  15.2424083
  77.2365433  52.7433833  15.5384083  77.8585433  52.9063833  16.1284083
  77.2725433  53.4343833  15.0064083  77.3335433  52.8693833  15.5474083
  71.7375433  45.2773833  16.3674083  72.0615433  44.4983833  16.1454083
  72.3835433  45.6453833  16.8224083  71.8805433  45.2163833  16.4014083
  68.7345433  36.9383833  17.3354083  68.8635433  36.2303833  16.8434083
  68.3675433  36.6203833  18.0604083  68.6995433  36.7863833  17.3704083
  78.4275433  44.6193833  17.7924083  78.4865433  45.2693833  18.3714083
  78.2385433  43.9233833  18.2834083  78.4085433  44.6123833  17.9504083
  72.9235433  39.1363833  14.3044083  72.4125433  39.1893833  13.5984083
  73.7075433  39.3763833  14.0084083  72.9635433  39.1793833  14.1564083
  77.6505433  46.6663833  22.2234083  76.8035433  46.4723833  22.3044083
  77.9745433  46.5013833  23.0164083  77.5725433  46.6133833  22.3524083
  74.4025433  53.3963833  13.1094083  74.8415433  52.6993833  13.3974083
  74.6095433  54.0203833  13.6824083  74.4985433  53.3853833  13.2364083
  71.4985433  46.3593833  24.5394083  72.2205433  46.8473833  24.5024083
  71.2285433  46.3293833  23.7104083  71.5655433  46.4273833  24.4114083
  74.7285433  41.5303833  21.2744083  75.5745433  41.3403833  21.3724083
  74.3585433  40.7533833  21.1364083  74.7985433  41.3873833  21.2684083
  69.5495433  42.8683833  17.9294083  70.0385433  42.5763833  18.5904083
  69.6785433  42.2753833  17.3024083  69.6405433  42.7373833  17.9344083
  74.0745433  44.3023833  13.4154083  73.4645433  43.8973833  13.8894083
  73.6885433  44.4203833  12.6424083  73.9275433  44.2593833  13.3714083
  70.8935433  47.4113833  28.8174083  70.4725433  46.8933833  28.2564083
  70.5415433  48.1973833  28.6744083  70.7795433  47.4513833  28.7134083
  75.5295433  42.7633833  16.1254083  75.8015433  43.5893833  16.1924083
  74.6665433  42.8383833  16.0294083  75.4425433  42.8963833  16.1204083
  69.0095433  38.7333833  22.6614083  69.0535433  39.0773833  21.8604083
  69.7645433  38.9703833  23.0284083  69.1275433  38.8193833  22.5974083
  75.6325433  49.2223833  25.4354083  75.3345433  49.8143833  26.0024083
  75.6875433  49.6643833  24.6864083  75.5965433  49.3753833  25.4084083
  73.6115433  48.1723833  28.8334083  72.8055433  47.8823833  29.0004083
  73.5225433  49.0403833  28.8394083  73.4795433  48.2573833  28.8584083
  74.8585433  41.2483833  27.6674083  75.0195433  40.5043833  28.0944083
  74.8135433  40.9993833  26.8324083  74.8755433  41.1013833  27.6074083
  77.4125433  53.0383833  20.1544083  77.9585433  53.7173833  20.2084083
  77.0625433  53.1203833  19.3594083  77.4415433  53.1513833  20.0444083
  76.6105433  37.0563833  27.5474083  77.3155433  37.3763833  27.1454083
  76.8515433  36.2493833  27.7744083  76.7495433  36.9843833  27.5214083
  75.5955433  51.2663833  23.5434083  74.9715433  51.8483833  23.3614083
  75.8435433  50.9803833  22.7574083  75.5395433  51.3103833  23.4004083
  77.1895433  46.0423833  13.4584083  76.3845433  45.8653833  13.1734083
  77.1565433  46.8933833  13.6504083  77.0655433  46.1413833  13.4454083
  73.1195433  42.1093833  23.6084083  73.5595433  42.0063833  22.8624083
  73.6645433  41.7963833  24.2134083  73.2645433  42.0483833  23.5874083
  76.6665433  37.0943833  23.6554083  75.8405433  36.9453833  23.8924083
  76.6265433  37.1293833  22.7844083  76.5385433  37.0773833  23.5614083
  78.3075433  48.1343833  28.4434083  77.5125433  48.0703833  28.7944083
  78.3785433  48.9813833  28.2484083  78.2005433  48.2493833  28.4664083
  69.2315433  37.4923833  29.6904083  69.0915433  38.2873833  29.3594083
  68.4455433  37.2493833  29.9794083  69.0945433  37.5743833  29.6844083
  74.1375433  54.3413833  23.7604083  74.1485433  54.4003833  24.6304083
  73.7125433  53.5943833  23.6104083  74.0765433  54.2393833  23.8664083
  72.2955433  40.2363833  16.9154083  72.4215433  39.9073833  16.1174083
  71.4835433  39.9873833  17.1144083  72.1945433  40.1513833  16.8274083
  70.9015433  53.8393833  29.2024083  70.2475433  53.2703833  29.3004083
  70.5265433  54.6123833  29.3534083  70.7495433  53.8693833  29.2394083
  72.2725433  42.2473833  27.3314083  72.6475433  42.8663833  26.8444083
  72.9465433  41.7733833  27.6164083  72.4275433  42.2693833  27.3014083
  70.0475433  40.6953833  26.6064083  70.1245433  40.5263833  25.7534083
  70.7935433  41.1013833  26.8034083  70.1685433  40.7303833  26.5094083
  72.6015433  38.1053833  29.0174083  72.5205433  37.2613833  29.2234083
  72.2875433  38.1493833  28.2044083  72.5435433  37.9873833  28.9274083
  69.4445433  45.9213833  26.8304083  69.7645433  46.1403833  26.0494083
  69.3445433  45.0563833  26.7754083  69.4765433  45.8263833  26.7074083
  70.9005433  41.8573833  13.4484083  70.2285433  41.8713833  14.0044083
  70.9955433  41.0093833  13.2644083  70.8155433  41.7343833  13.5034083
  74.8885433  50.5623833  14.5624083  75.3295433  50.6423833  15.3104083
  74.0835433  50.3463833  14.8204083  74.8345433  50.5423833  14.7114083
  74.2075433  45.2133833  28.2154083  73.8115433  45.9873833  28.2904083
  73.8015433  44.8403833  27.5394083  74.0895433  45.2723833  28.1264083
  72.2175433  49.6323833  15.1634083  71.9735433  49.3253833  15.9434083
  72.1845433  48.9293833  14.6474083  72.1765433  49.4833833  15.2024083
  75.0365433  47.8773833  13.9064083  74.2185433  47.6093833  14.0464083
  75.0085433  48.7293833  14.0914083  74.9115433  47.9643833  13.9544083
  74.6365433  38.1903833  25.6654083  73.7725433  38.2743833  25.7454083
  74.8565433  37.6763833  26.3344083  74.5415433  38.1273833  25.7764083
  76.2425433  43.2673833  29.2434083  75.9205433  42.6913833  28.6734083
  75.8835433  44.0223833  28.9974083  76.1425433  43.2933833  29.1234083
  77.0385433  36.5193833  13.8704083  77.1165433  36.7663833  13.0374083
  76.2955433  36.8963833  14.1284083  76.9405433  36.6113833  13.7854083
  74.6775433  53.6233833  29.4914083  74.7185433  53.7493833  30.3544083
  75.3285433  53.0633833  29.3354083  74.7795433  53.5593833  29.5964083
  71.8565433  38.2733833  26.3134083  71.5135433  37.5063833  26.0794083
  71.1615433  38.7973833  26.3774083  71.7035433  38.2373833  26.2884083
  72.2705433  52.0063833  30.8514083  72.8655433  52.4373833  31.3234083
  71.9065433  52.6303833  30.3624083  72.3045433  52.1623833  30.8484083
  70.5095433  41.5873833  20.2694083  70.1415433  41.8893833  21.0004083
  71.0435433  40.9583833  20.5534083  70.5335433  41.5393833  20.4194083
  70.1975433  49.9953833  27.7804083  69.6235433  50.4113833  28.2894083
  70.9305433  50.4603833  27.8754083  70.2215433  50.1253833  27.8694083
  71.9835433  53.2623833  16.5554083  71.8385433  53.4183833  15.7094083
  72.8495433  53.3413833  16.6334083  72.0905433  53.2973833  16.4424083
  76.1505433  45.6593833  16.2834083  76.2505433  45.7983833  15.4284083
  76.9685433  45.5993833  16.5794083  76.2855433  45.6703833  16.2004083
  75.2895433  38.6343833  29.3994083  75.5235433  38.0583833  28.7864083
  74.4475433  38.4533833  29.5404083  75.1995433  38.5223833  29.3294083
  72.6705433  52.0773833  23.0324083  72.5915433  51.2673833  22.7164083
  72.2265433  52.5643833  22.4604083  72.5935433  52.0293833  22.9014083
  70.2425433  54.3213833  26.6134083  70.7355433  54.2653833  27.3314083
  70.4305433  53.5883833  26.1784083  70.3435433  54.2043833  26.6554083
  69.2985433  50.6283833   6.1361673  69.4275433  50.3483833   6.9521673
  68.6885433  50.0873833   5.8271673  69.2275433  50.5073833   6.2111673
  75.8725433  48.1533833  11.2031673  75.6365433  48.1503833  12.0431673
  75.1245433  48.0053833  10.7791673  75.7265433  48.1303833  11.2641673
  75.2525433  40.7593833   5.6851673  75.9305433  40.7773833   5.1361673
  75.2075433  39.9233833   5.9301673  75.3455433  40.6383833   5.6401673
  75.8545433  51.3453833   8.4661673  75.9925433  52.1053833   8.0591673
  76.6455433  50.9803833   8.4931673  75.9915433  51.4043833   8.4101673
  76.9495433  49.2303833   2.9711673  77.2975433  48.4313833   3.0011673
  77.6145433  49.7343833   2.7161673  77.0995433  49.1863833   2.9381673
  69.2005433  42.9103833   3.3511673  68.9445433  43.7413833   3.2761673
  68.5365433  42.5273833   3.7681673  69.0645433  42.9763833   3.4021673
  72.2295433  37.7273833   3.8421673  71.7085433  37.0993833   3.5341673
  72.8205433  37.2903833   4.3131673  72.2405433  37.5693833   3.8661673
  75.5355433  39.8603833  13.1401673  75.6525433  39.4063833  12.4041673
  75.8235433  40.6583833  12.9371673  75.5955433  39.9113833  13.0011673
  71.2685433  39.4573833  12.1241673  70.4905433  39.0673833  12.0521673
  71.7595433  39.0453833  11.5331673  71.2255433  39.3383833  12.0261673
  71.4735433  49.7773833   2.6821673  71.8965433  49.4213833   2.0081673
  71.7975433  49.3553833   3.3741673  71.5835433  49.6623833   2.6851673
  74.7045433  52.6293833   1.9781673  75.5485433  52.7333833   1.7831673
  74.4075433  53.4473833   2.0461673  74.7855433  52.7653833   1.9591673
  77.9175433  37.1003833  11.2921673  78.0955433  36.2913833  11.0171673
  77.7745433  37.5413833  10.5531673  77.9225433  37.0463833  11.1421673
  73.7025433  53.8483833   7.7181673  73.9945433  53.7813833   8.5381673
  73.0765433  53.2433833   7.6731673  73.6535433  53.7493833   7.8331673
  68.6165433  40.0053833   9.7101673  68.6125433  40.5923833  10.3561673
  69.2105433  40.3173833   9.1531673  68.7035433  40.1383833   9.7231673
  71.6955433  52.0103833   6.8401673  70.9975433  51.5023833   6.9661673
  71.9555433  51.8053833   6.0321673  71.6305433  51.9053833   6.7391673
  73.0565433  50.8613833   9.4071673  73.8975433  50.9243833   9.1851673
  73.0195433  51.2583833  10.1831673  73.1755433  50.9293833   9.4891673
  75.0195433  46.3723833   4.1561673  75.1915433  46.1623833   4.9851673
  74.3645433  45.8383833   3.9401673  74.9485433  46.2623833   4.2471673
  75.7695433  46.3103833   6.7461673  75.8225433  47.1573833   6.9481673
  75.4845433  45.9403833   7.4831673  75.7355433  46.3803833   6.8841673
  68.5905433  50.6813833  12.9571673  69.3465433  51.0303833  13.2151673
  68.7675433  49.8283833  12.9001673  68.7285433  50.6063833  12.9871673
  71.1025433  53.9013833   2.5711673  70.4295433  53.4033833   2.3261673
  71.5055433  54.0863833   1.8201673  71.0625433  53.8553833   2.4241673
  70.6525433  40.8513833   4.8671673  71.4955433  41.0713833   4.8241673
  70.2635433  41.4243833   4.3361673  70.7195433  40.9683833   4.7821673
  68.8595433  48.8263833   2.8891673  68.1925433  49.3143833   3.1651673
  69.5395433  49.3713833   2.9181673  68.8615433  48.9783833   2.9341673
  76.5065433  42.5363833  12.9851673  76.0225433  43.1133833  13.4271673
  76.4785433  42.8313833  12.1641673  76.4305433  42.6653833  12.9291673
  73.3015433  48.6743833   4.6561673  73.7685433  48.9633833   5.3341673
  73.8735433  48.1963833   4.2021673  73.4555433  48.6463833   4.6891673
  69.8675433  46.3443833   3.2001673  70.2985433  46.2153833   2.4531673
  69.6625433  47.1923833   3.1741673  69.9005433  46.4503833   3.0861673
  72.0815433  43.3433833  11.3441673  71.5455433  42.8373833  11.8121673
  72.1015433  42.9533833  10.5641673  72.0045433  43.2103833  11.2981673
  72.7335433  44.5703833   3.0831673  71.9525433  44.5113833   2.7001673
  72.8055433  43.8183833   3.5201673  72.6285433  44.4513833   3.0911673
  73.1635433  44.3073833   6.5511673  73.1885433  43.6323833   6.0001673
  72.5175433  44.8033833   6.2391673  73.0725433  44.2803833   6.4241673
  77.2635433  53.0843833   5.9431673  76.9865433  52.4433833   5.4201673
  77.0555433  53.8103833   5.5051673  77.1925433  53.0973833   5.8011673
  70.9625433  45.6623833  12.1101673  70.9255433  46.1633833  11.3961673
  71.2935433  44.9103833  11.8151673  71.0055433  45.6243833  11.9611673
  76.8615433  50.7123833  11.5451673  77.2155433  50.5343833  12.3221673
  76.4255433  49.9833833  11.3461673  76.8495433  50.5783833  11.6311673
  77.8335433  41.4593833   4.1831673  78.3135433  42.1583833   4.3911673
  78.2065433  40.8123833   4.6341673  77.9595433  41.4673833   4.2801673
  77.6505433  46.6663833   3.2171673  76.8035433  46.4723833   3.2981673
  77.9745433  46.5013833   4.0101673  77.5725433  46.6133833   3.3461673
  71.4985433  46.3593833   5.5331673  72.2205433  46.8473833   5.4961673
  71.2285433  46.3293833   4.7041673  71.5655433  46.4273833   5.4051673
  74.7285433  41.5303833   2.2681673  75.5745433  41.3403833   2.3661673
  74.3585433  40.7533833   2.1301673  74.7985433  41.3873833   2.2621673
  70.8935433  47.4113833   9.8111673  70.4725433  46.8933833   9.2501673
  70.5415433  48.1973833   9.6681673  70.7795433  47.4513833   9.7071673
  69.0095433  38.7333833   3.6551673  69.0535433  39.0773833   2.8541673
  69.7645433  38.9703833   4.0221673  69.1275433  38.8193833   3.5911673
  75.6325433  49.2223833   6.4291673  75.3345433  49.8143833   6.9961673
  75.6875433  49.6643833   5.6801673  75.5965433  49.3753833   6.4021673
  73.6115433  48.1723833   9.8271673  72.8055433  47.8823833   9.9941673
  73.5225433  49.0403833   9.8331673  73.4795433  48.2573833   9.8521673
  74.8585433  41.2483833   8.6611673  75.0195433  40.5043833   9.0881673
  74.8135433  40.9993833   7.8261673  74.8755433  41.1013833   8.6011673
  76.6105433  37.0563833   8.5411673  77.3155433  37.3763833   8.1391673
  76.8515433  36.2493833   8.7681673  76.7495433  36.9843833   8.5151673
  75.5955433  51.2663833   4.5371673  74.9715433  51.8483833   4.3551673
  75.8435433  50.9803833   3.7511673  75.5395433  51.3103833   4.3941673
  73.1195433  42.1093833   4.6021673  73.5595433  42.0063833   3.8561673
  73.6645433  41.7963833   5.2071673  73.2645433  42.0483833   4.5811673
  76.6665433  37.0943833   4.6491673  75.8405433  36.9453833   4.8861673
  76.6265433  37.1293833   3.7781673  76.5385433  37.0773833   4.5551673
  78.3075433  48.1343833   9.4371673  77.5125433  48.0703833   9.7881673
  78.3785433  48.9813833   9.2421673  78.2005433  48.2493833   9.4601673
  69.2315433  37.4923833  10.6841673  69.0915433  38.2873833  10.3531673
  68.4455433  37.2493833  10.9731673  69.0945433  37.5743833  10.6781673
  74.1375433  54.3413833   4.7541673  74.1485433  54.4003833   5.6241673
  73.7125433  53.5943833   4.6041673  74.0765433  54.2393833   4.8601673
  70.9015433  53.8393833  10.1961673  70.2475433  53.2703833  10.2941673
  70.5265433  54.6123833  10.3471673  70.7495433  53.8693833  10.2331673
  72.2725433  42.2473833   8.3251673  72.6475433  42.8663833   7.8381673
  72.9465433  41.7733833   8.6101673  72.4275433  42.2693833   8.2951673
  70.0475433  40.6953833   7.6001673  70.1245433  40.5263833   6.7471673
  70.7935433  41.1013833   7.7971673  70.1685433  40.7303833   7.5031673
  72.6015433  38.1053833  10.0111673  72.5205433  37.2613833  10.2171673
  72.2875433  38.1493833   9.1981673  72.5435433  37.9873833   9.9211673
  69.4445433  45.9213833   7.8241673  69.7645433  46.1403833   7.0431673
  69.3445433  45.0563833   7.7691673  69.4765433  45.8263833   7.7011673
  74.2075433  45.2133833   9.2091673  73.8115433  45.9873833   9.2841673
  73.8015433  44.8403833   8.5331673  74.0895433  45.2723833   9.1201673
  74.6365433  38.1903833   6.6591673  73.7725433  38.2743833   6.7391673
  74.8565433  37.6763833   7.3281673  74.5415433  38.1273833   6.7701673
  76.2425433  43.2673833  10.2371673  75.9205433  42.6913833   9.6671673
  75.8835433  44.0223833   9.9911673  76.1425433  43.2933833  10.1171673
  74.6775433  53.6233833  10.4851673  74.7185433  53.7493833  11.3481673
  75.3285433  53.0633833  10.3291673  74.7795433  53.5593833  10.5901673
  71.8565433  38.2733833   7.3071673  71.5135433  37.5063833   7.0731673
  71.1615433  38.7973833   7.3711673  71.7035433  38.2373833   7.2821673
  72.2705433  52.0063833  11.8451673  72.8655433  52.4373833  12.3171673
  71.9065433  52.6303833  11.3561673  72.3045433  52.1623833  11.8421673
  70.1975433  49.9953833   8.7741673  69.6235433  50.4113833   9.2831673
  70.9305433  50.4603833   8.8691673  70.2215433  50.1253833   8.8631673
  75.2895433  38.6343833  10.3931673  75.5235433  38.0583833   9.7801673
  74.4475433  38.4533833  10.5341673  75.1995433  38.5223833  10.3231673
  72.6705433  52.0773833   4.0261673  72.5915433  51.2673833   3.7101673
  72.2265433  52.5643833   3.4541673  72.5935433  52.0293833   3.8951673
  70.2425433  54.3213833   7.6071673  70.7355433  54.2653833   8.3251673
  70.4305433  53.5883833   7.1721673  70.3435433  54.2043833   7.6491673
  69.3585433  29.4152753  75.9061313  68.9175433  29.5332753  76.6491313
  69.0755433  28.6402753  75.6211313  69.2515433  29.3182753  75.9741313
  69.1015433  23.2072753  72.4131313  68.3235433  23.3692753  72.0531313
  69.1405433  22.3362753  72.4351313  68.9925433  23.1022753  72.3631313
  72.2405433  28.4702753  71.0851313  71.8485433  28.0992753  70.3991313
  72.1605433  27.8722753  71.7141313  72.1705433  28.3272753  71.0761313
  71.8675433  30.1112753  74.9851313  72.4755433  29.9412753  75.5881313
  71.1165433  29.9712753  75.4061313  71.8465433  30.0652753  75.1361313
  76.1495433  19.4462753  74.9341313  76.0795433  20.1232753  74.3881313
  76.8905433  19.0582753  74.6851313  76.2485433  19.4892753  74.8161313
  70.7585433  33.2022753  71.0621313  71.2255433  33.2862753  70.3301313
  71.2135433  32.6242753  71.5311313  70.8945433  33.1292753  71.0231313
  70.7445433  26.6712753  76.3631313  70.2825433  26.2792753  75.7361313
  71.4445433  26.1582753  76.4551313  70.7795433  26.5382753  76.2841313
  72.7455433  24.7712753  76.3861313  73.5625433  24.5842753  76.6291313
  72.2685433  24.1572753  76.7821313  72.7955433  24.6532753  76.4811313
  76.9495433  30.7522753  78.9961313  77.2975433  29.9532753  79.0261313
  77.6145433  31.2562753  78.7411313  77.0995433  30.7082753  78.9631313
  77.0065433  30.2012753  75.2071313  77.3375433  29.5572753  75.6931313
  77.2465433  29.9902753  74.3961313  77.0905433  30.0752753  75.1591313
  73.3425433  19.8652753  75.6521313  73.0465433  20.3662753  75.0021313
  74.2095433  19.9432753  75.5951313  73.4265433  19.9512753  75.5481313
  76.3215433  19.0072753  77.8751313  76.3945433  19.8672753  78.0041313
  76.2835433  18.9322753  77.0071313  76.3265433  19.1232753  77.7661313
  69.2005433  24.4322753  79.3761313  68.9445433  25.2632753  79.3011313
  68.5365433  24.0492753  79.7931313  69.0645433  24.4982753  79.4271313
  69.1105433  34.1422753  77.2761313  68.5185433  34.7002753  76.9631313
  69.5365433  33.8732753  76.5641313  69.0865433  34.1842753  77.1251313
  74.9505433  31.9862753  74.7561313  74.3715433  31.7112753  75.3481313
  75.5745433  31.3772753  74.7811313  74.9575433  31.8562753  74.8471313
  72.2295433  19.2492753  79.8671313  71.7085433  18.6212753  79.5591313
  72.8205433  18.8122753  80.3381313  72.2405433  19.0912753  79.8911313
  70.6555433  32.8122753  75.2071313  71.3115433  32.2372753  75.2221313
  71.0445433  33.5612753  74.9861313  70.8105433  32.8372753  75.1771313
  71.4735433  31.2992753  78.7071313  71.8965433  30.9432753  78.0331313
  71.7975433  30.8772753  79.3991313  71.5835433  31.1842753  78.7101313
  74.7045433  34.1512753  78.0031313  75.5485433  34.2552753  77.8081313
  74.4075433  34.9692753  78.0711313  74.7855433  34.2872753  77.9841313
  69.5535433  21.1222753  74.6501313  69.4395433  20.2582753  74.6811313
  69.0785433  21.4162753  75.3201313  69.4665433  21.0382753  74.7531313
  77.4555433  21.6382753  77.8081313  77.5295433  22.2062753  77.1501313
  77.5765433  22.1302753  78.5181313  77.4835433  21.7952753  77.8161313
  72.0635433  17.4612753  76.1561313  72.5995433  18.1492753  76.1461313
  72.0665433  17.1872753  75.3281313  72.1425433  17.5222753  76.0321313
  75.0195433  27.8942753  80.1811313  75.1915433  27.6842753  81.0101313
  74.3645433  27.3602753  79.9651313  74.9485433  27.7842753  80.2721313
  72.5115433  21.2712753  77.8101313  72.7835433  20.8412753  77.1021313
  72.3355433  20.6352753  78.3811313  72.5255433  21.1142753  77.7901313
  72.3355433  28.6982753  77.3591313  73.1865433  28.6182753  77.1861313
  71.9785433  28.0162753  76.9471313  72.4085433  28.5852753  77.2721313
  71.1025433  35.4232753  78.5961313  70.4295433  34.9252753  78.3511313
  71.5055433  35.6082753  77.8451313  71.0625433  35.3772753  78.4491313
  70.6525433  22.3732753  80.8921313  71.4955433  22.5932753  80.8491313
  70.2635433  22.9462753  80.3611313  70.7195433  22.4902753  80.8071313
  74.7035433  28.7052753  75.5941313  75.4165433  29.2002753  75.6841313
  74.9255433  28.1382753  74.9681313  74.8415433  28.6942753  75.5151313
  68.8595433  30.3482753  78.9141313  68.1925433  30.8362753  79.1901313
  69.5395433  30.8932753  78.9431313  68.8615433  30.5002753  78.9591313
  68.9255433  27.0322753  74.0171313  68.7405433  26.1932753  74.1691313
  69.5845433  26.9962753  73.4471313  68.9955433  26.9032753  73.9551313
  69.0975433  31.1962753  73.5921313  69.6495433  31.7652753  73.9561313
  68.8655433  30.6812753  74.2571313  69.1445433  31.2042753  73.7441313
  73.3015433  30.1962753  80.6811313  73.7685433  30.4852753  81.3591313
  73.8735433  29.7182753  80.2271313  73.4555433  30.1682753  80.7141313
  68.9275433  29.6452753  71.2201313  69.6835433  29.2132753  71.2781313
  68.9425433  30.1772753  71.9111313  69.0415433  29.6602753  71.3311313
  69.8675433  27.8662753  79.2251313  70.2985433  27.7372753  78.4781313
  69.6625433  28.7142753  79.1991313  69.9005433  27.9722753  79.1111313
  76.2135433  21.4302753  72.8751313  76.2115433  21.3132753  72.0101313
  76.0325433  22.2782753  72.9671313  76.1865433  21.5382753  72.7611313
  73.9515433  31.3822753  77.5071313  74.0775433  32.2252753  77.6941313
  74.6195433  30.9832753  77.9031313  74.0695433  31.4482753  77.5931313
  72.5665433  24.2622753  72.5091313  72.4385433  23.8142753  73.2471313
  71.9845433  23.9202753  71.9571313  72.4615433  24.1452753  72.5371313
  72.7335433  26.0922753  79.1081313  71.9525433  26.0332753  78.7251313
  72.8055433  25.3402753  79.5451313  72.6285433  25.9732753  79.1161313
  77.8335433  22.9812753  80.2081313  78.3135433  23.6802753  80.4161313
  78.2065433  22.3342753  80.6591313  77.9595433  22.9892753  80.3051313
  74.9445433  34.7492753  74.1551313  74.7975433  33.9732753  74.5261313
  75.6335433  34.6022753  73.6401313  75.0245433  34.6122753  74.1341313
  74.6155433  18.4922753  72.1431313  74.7125433  18.3852753  73.0041313
  73.9075433  18.9982753  72.0781313  74.5255433  18.5512753  72.2611313
  77.2365433  34.2652753  72.5571313  77.8585433  34.4282753  73.1471313
  77.2725433  34.9562753  72.0251313  77.3335433  34.3912753  72.5661313
  71.7375433  26.7992753  73.3861313  72.0615433  26.0202753  73.1641313
  72.3835433  27.1672753  73.8411313  71.8805433  26.7382753  73.4201313
  68.7345433  18.4602753  74.3541313  68.8635433  17.7522753  73.8621313
  68.3675433  18.1422753  75.0791313  68.6995433  18.3082753  74.3891313
  78.4275433  26.1412753  74.8111313  78.4865433  26.7912753  75.3901313
  78.2385433  25.4452753  75.3021313  78.4085433  26.1342753  74.9691313
  72.9235433  20.6582753  71.3231313  72.4125433  20.7112753  70.6171313
  73.7075433  20.8982753  71.0271313  72.9635433  20.7012753  71.1751313
  77.6505433  28.1882753  79.2421313  76.8035433  27.9942753  79.3231313
  77.9745433  28.0232753  80.0351313  77.5725433  28.1352753  79.3711313
  74.4025433  34.9182753  70.1281313  74.8415433  34.2212753  70.4161313
  74.6095433  35.5422753  70.7011313  74.4985433  34.9072753  70.2551313
  71.4985433  27.8812753  81.5581313  72.2205433  28.3692753  81.5211313
  71.2285433  27.8512753  80.7291313  71.5655433  27.9492753  81.4301313
  74.7285433  23.0522753  78.2931313  75.5745433  22.8622753  78.3911313
  74.3585433  22.2752753  78.1551313  74.7985433  22.9092753  78.2871313
  69.5495433  24.3902753  74.9481313  70.0385433  24.0982753  75.6091313
  69.6785433  23.7972753  74.3211313  69.6405433  24.2592753  74.9531313
  74.0745433  25.8242753  70.4341313  73.4645433  25.4192753  70.9081313
  73.6885433  25.9422753  69.6611313  73.9275433  25.7812753  70.3901313
  75.5295433  24.2852753  73.1441313  75.8015433  25.1112753  73.2111313
  74.6665433  24.3602753  73.0481313  75.4425433  24.4182753  73.1391313
  69.0095433  20.2552753  79.6801313  69.0535433  20.5992753  78.8791313
  69.7645433  20.4922753  80.0471313  69.1275433  20.3412753  79.6161313
  77.4125433  34.5602753  77.1731313  77.9585433  35.2392753  77.2271313
  77.0625433  34.6422753  76.3781313  77.4415433  34.6732753  77.0631313
  75.5955433  32.7882753  80.5621313  74.9715433  33.3702753  80.3801313
  75.8435433  32.5022753  79.7761313  75.5395433  32.8322753  80.4191313
  77.1895433  27.5642753  70.4771313  76.3845433  27.3872753  70.1921313
  77.1565433  28.4152753  70.6691313  77.0655433  27.6632753  70.4641313
  73.1195433  23.6312753  80.6271313  73.5595433  23.5282753  79.8811313
  73.6645433  23.3182753  81.2321313  73.2645433  23.5702753  80.6061313
  76.6665433  18.6162753  80.6741313  75.8405433  18.4672753  80.9111313
  76.6265433  18.6512753  79.8031313  76.5385433  18.5992753  80.5801313
  72.2955433  21.7582753  73.9341313  72.4215433  21.4292753  73.1361313
  71.4835433  21.5092753  74.1331313  72.1945433  21.6732753  73.8461313
  70.9005433  23.3792753  70.4671313  70.2285433  23.3932753  71.0231313
  70.9955433  22.5312753  70.2831313  70.8155433  23.2562753  70.5221313
  74.8885433  32.0842753  71.5811313  75.3295433  32.1642753  72.3291313
  74.0835433  31.8682753  71.8391313  74.8345433  32.0642753  71.7301313
  72.2175433  31.1542753  72.1821313  71.9735433  30.8472753  72.9621313
  72.1845433  30.4512753  71.6661313  72.1765433  31.0052753  72.2211313
  75.0365433  29.3992753  70.9251313  74.2185433  29.1312753  71.0651313
  75.0085433  30.2512753  71.1101313  74.9115433  29.4862753  70.9731313
  77.0385433  18.0412753  70.8891313  77.1165433  18.2882753  70.0561313
  76.2955433  18.4182753  71.1471313  76.9405433  18.1332753  70.8041313
  70.5095433  23.1092753  77.2881313  70.1415433  23.4112753  78.0191313
  71.0435433  22.4802753  77.5721313  70.5335433  23.0612753  77.4381313
  71.9835433  34.7842753  73.5741313  71.8385433  34.9402753  72.7281313
  72.8495433  34.8632753  73.6521313  72.0905433  34.8192753  73.4611313
  76.1505433  27.1812753  73.3021313  76.2505433  27.3202753  72.4471313
  76.9685433  27.1212753  73.5981313  76.2855433  27.1922753  73.2191313
  72.6705433  33.5992753  80.0511313  72.5915433  32.7892753  79.7351313
  72.2265433  34.0862753  79.4791313  72.5935433  33.5512753  79.9201313
  69.3585433  29.4152753  56.8998903  68.9175433  29.5332753  57.6428903
  69.0755433  28.6402753  56.6148903  69.2515433  29.3182753  56.9678903
  69.1015433  23.2072753  53.4068903  68.3235433  23.3692753  53.0468903
  69.1405433  22.3362753  53.4288903  68.9925433  23.1022753  53.3568903
  72.2405433  28.4702753  52.0788903  71.8485433  28.0992753  51.3928903
  72.1605433  27.8722753  52.7078903  72.1705433  28.3272753  52.0698903
  71.8675433  30.1112753  55.9788903  72.4755433  29.9412753  56.5818903
  71.1165433  29.9712753  56.3998903  71.8465433  30.0652753  56.1298903
  76.1495433  19.4462753  55.9278903  76.0795433  20.1232753  55.3818903
  76.8905433  19.0582753  55.6788903  76.2485433  19.4892753  55.8098903
  70.7585433  33.2022753  52.0558903  71.2255433  33.2862753  51.3238903
  71.2135433  32.6242753  52.5248903  70.8945433  33.1292753  52.0168903
  69.2985433  32.1502753  63.1548903  69.4275433  31.8702753  63.9708903
  68.6885433  31.6092753  62.8458903  69.2275433  32.0292753  63.2298903
  75.8725433  29.6752753  68.2218903  75.6365433  29.6722753  69.0618903
  75.1245433  29.5272753  67.7978903  75.7265433  29.6522753  68.2828903
  70.7445433  26.6712753  57.3568903  70.2825433  26.2792753  56.7298903
  71.4445433  26.1582753  57.4488903  70.7795433  26.5382753  57.2778903
  75.2525433  22.2812753  62.7038903  75.9305433  22.2992753  62.1548903
  75.2075433  21.4452753  62.9488903  75.3455433  22.1602753  62.6588903
  75.8545433  32.8672753  65.4848903  75.9925433  33.6272753  65.0778903
  76.6455433  32.5022753  65.5118903  75.9915433  32.9262753  65.4288903
  72.7455433  24.7712753  57.3798903  73.5625433  24.5842753  57.6228903
  72.2685433  24.1572753  57.7758903  72.7955433  24.6532753  57.4748903
  76.9495433  30.7522753  59.9898903  77.2975433  29.9532753  60.0198903
  77.6145433  31.2562753  59.7348903  77.0995433  30.7082753  59.9568903
  77.0065433  30.2012753  56.2008903  77.3375433  29.5572753  56.6868903
  77.2465433  29.9902753  55.3898903  77.0905433  30.0752753  56.1528903
  73.3425433  19.8652753  56.6458903  73.0465433  20.3662753  55.9958903
  74.2095433  19.9432753  56.5888903  73.4265433  19.9512753  56.5418903
  76.3215433  19.0072753  58.8688903  76.3945433  19.8672753  58.9978903
  76.2835433  18.9322753  58.0008903  76.3265433  19.1232753  58.7598903
  69.2005433  24.4322753  60.3698903  68.9445433  25.2632753  60.2948903
  68.5365433  24.0492753  60.7868903  69.0645433  24.4982753  60.4208903
  69.1105433  34.1422753  58.2698903  68.5185433  34.7002753  57.9568903
  69.5365433  33.8732753  57.5578903  69.0865433  34.1842753  58.1188903
  74.9505433  31.9862753  55.7498903  74.3715433  31.7112753  56.3418903
  75.5745433  31.3772753  55.7748903  74.9575433  31.8562753  55.8408903
  72.2295433  19.2492753  60.8608903  71.7085433  18.6212753  60.5528903
  72.8205433  18.8122753  61.3318903  72.2405433  19.0912753  60.8848903
  75.5355433  21.3822753  70.1588903  75.6525433  20.9282753  69.4228903
  75.8235433  22.1802753  69.9558903  75.5955433  21.4332753  70.0198903
  70.6555433  32.8122753  56.2008903  71.3115433  32.2372753  56.2158903
  71.0445433  33.5612753  55.9798903  70.8105433  32.8372753  56.1708903
  71.2685433  20.9792753  69.1428903  70.4905433  20.5892753  69.0708903
  71.7595433  20.5672753  68.5518903  71.2255433  20.8602753  69.0448903
  71.4735433  31.2992753  59.7008903  71.8965433  30.9432753  59.0268903
  71.7975433  30.8772753  60.3928903  71.5835433  31.1842753  59.7038903
  74.7045433  34.1512753  58.9968903  75.5485433  34.2552753  58.8018903
  74.4075433  34.9692753  59.0648903  74.7855433  34.2872753  58.9778903
  77.9175433  18.6222753  68.3108903  78.0955433  17.8132753  68.0358903
  77.7745433  19.0632753  67.5718903  77.9225433  18.5682753  68.1608903
  73.7025433  35.3702753  64.7368903  73.9945433  35.3032753  65.5568903
  73.0765433  34.7652753  64.6918903  73.6535433  35.2712753  64.8518903
  68.6165433  21.5272753  66.7288903  68.6125433  22.1142753  67.3748903
  69.2105433  21.8392753  66.1718903  68.7035433  21.6602753  66.7418903
  69.5535433  21.1222753  55.6438903  69.4395433  20.2582753  55.6748903
  69.0785433  21.4162753  56.3138903  69.4665433  21.0382753  55.7468903
  71.6955433  33.5322753  63.8588903  70.9975433  33.0242753  63.9848903
  71.9555433  33.3272753  63.0508903  71.6305433  33.4272753  63.7578903
  77.4555433  21.6382753  58.8018903  77.5295433  22.2062753  58.1438903
  77.5765433  22.1302753  59.5118903  77.4835433  21.7952753  58.8098903
  73.0565433  32.3832753  66.4258903  73.8975433  32.4462753  66.2038903
  73.0195433  32.7802753  67.2018903  73.1755433  32.4512753  66.5078903
  72.0635433  17.4612753  57.1498903  72.5995433  18.1492753  57.1398903
  72.0665433  17.1872753  56.3218903  72.1425433  17.5222753  57.0258903
  75.0195433  27.8942753  61.1748903  75.1915433  27.6842753  62.0038903
  74.3645433  27.3602753  60.9588903  74.9485433  27.7842753  61.2658903
  75.7695433  27.8322753  63.7648903  75.8225433  28.6792753  63.9668903
  75.4845433  27.4622753  64.5018903  75.7355433  27.9022753  63.9028903
  68.5905433  32.2032753  69.9758903  69.3465433  32.5522753  70.2338903
  68.7675433  31.3502753  69.9188903  68.7285433  32.1282753  70.0058903
  72.5115433  21.2712753  58.8038903  72.7835433  20.8412753  58.0958903
  72.3355433  20.6352753  59.3748903  72.5255433  21.1142753  58.7838903
  72.3355433  28.6982753  58.3528903  73.1865433  28.6182753  58.1798903
  71.9785433  28.0162753  57.9408903  72.4085433  28.5852753  58.2658903
  71.1025433  35.4232753  59.5898903  70.4295433  34.9252753  59.3448903
  71.5055433  35.6082753  58.8388903  71.0625433  35.3772753  59.4428903
  70.6525433  22.3732753  61.8858903  71.4955433  22.5932753  61.8428903
  70.2635433  22.9462753  61.3548903  70.7195433  22.4902753  61.8008903
  74.7035433  28.7052753  56.5878903  75.4165433  29.2002753  56.6778903
  74.9255433  28.1382753  55.9618903  74.8415433  28.6942753  56.5088903
  68.8595433  30.3482753  59.9078903  68.1925433  30.8362753  60.1838903
  69.5395433  30.8932753  59.9368903  68.8615433  30.5002753  59.9528903
  76.5065433  24.0582753  70.0038903  76.0225433  24.6352753  70.4458903
  76.4785433  24.3532753  69.1828903  76.4305433  24.1872753  69.9478903
  68.9255433  27.0322753  55.0108903  68.7405433  26.1932753  55.1628903
  69.5845433  26.9962753  54.4408903  68.9955433  26.9032753  54.9488903
  69.0975433  31.1962753  54.5858903  69.6495433  31.7652753  54.9498903
  68.8655433  30.6812753  55.2508903  69.1445433  31.2042753  54.7378903
  73.3015433  30.1962753  61.6748903  73.7685433  30.4852753  62.3528903
  73.8735433  29.7182753  61.2208903  73.4555433  30.1682753  61.7078903
  68.9275433  29.6452753  52.2138903  69.6835433  29.2132753  52.2718903
  68.9425433  30.1772753  52.9048903  69.0415433  29.6602753  52.3248903
  69.8675433  27.8662753  60.2188903  70.2985433  27.7372753  59.4718903
  69.6625433  28.7142753  60.1928903  69.9005433  27.9722753  60.1048903
  76.2135433  21.4302753  53.8688903  76.2115433  21.3132753  53.0038903
  76.0325433  22.2782753  53.9608903  76.1865433  21.5382753  53.7548903
  73.9515433  31.3822753  58.5008903  74.0775433  32.2252753  58.6878903
  74.6195433  30.9832753  58.8968903  74.0695433  31.4482753  58.5868903
  72.0815433  24.8652753  68.3628903  71.5455433  24.3592753  68.8308903
  72.1015433  24.4752753  67.5828903  72.0045433  24.7322753  68.3168903
  72.5665433  24.2622753  53.5028903  72.4385433  23.8142753  54.2408903
  71.9845433  23.9202753  52.9508903  72.4615433  24.1452753  53.5308903
  72.7335433  26.0922753  60.1018903  71.9525433  26.0332753  59.7188903
  72.8055433  25.3402753  60.5388903  72.6285433  25.9732753  60.1098903
  73.1635433  25.8292753  63.5698903  73.1885433  25.1542753  63.0188903
  72.5175433  26.3252753  63.2578903  73.0725433  25.8022753  63.4428903
  77.2635433  34.6062753  62.9618903  76.9865433  33.9652753  62.4388903
  77.0555433  35.3322753  62.5238903  77.1925433  34.6192753  62.8198903
  70.9625433  27.1842753  69.1288903  70.9255433  27.6852753  68.4148903
  71.2935433  26.4322753  68.8338903  71.0055433  27.1462753  68.9798903
  76.8615433  32.2342753  68.5638903  77.2155433  32.0562753  69.3408903
  76.4255433  31.5052753  68.3648903  76.8495433  32.1002753  68.6498903
  77.8335433  22.9812753  61.2018903  78.3135433  23.6802753  61.4098903
  78.2065433  22.3342753  61.6528903  77.9595433  22.9892753  61.2988903
  74.9445433  34.7492753  55.1488903  74.7975433  33.9732753  55.5198903
  75.6335433  34.6022753  54.6338903  75.0245433  34.6122753  55.1278903
  74.6155433  18.4922753  53.1368903  74.7125433  18.3852753  53.9978903
  73.9075433  18.9982753  53.0718903  74.5255433  18.5512753  53.2548903
  77.2365433  34.2652753  53.5508903  77.8585433  34.4282753  54.1408903
  77.2725433  34.9562753  53.0188903  77.3335433  34.3912753  53.5598903
  71.7375433  26.7992753  54.3798903  72.0615433  26.0202753  54.1578903
  72.3835433  27.1672753  54.8348903  71.8805433  26.7382753  54.4138903
  68.7345433  18.4602753  55.3478903  68.8635433  17.7522753  54.8558903
  68.3675433  18.1422753  56.0728903  68.6995433  18.3082753  55.3828903
  78.4275433  26.1412753  55.8048903  78.4865433  26.7912753  56.3838903
  78.2385433  25.4452753  56.2958903  78.4085433  26.1342753  55.9628903
  72.9235433  20.6582753  52.3168903  72.4125433  20.7112753  51.6108903
  73.7075433  20.8982753  52.0208903  72.9635433  20.7012753  52.1688903
  77.6505433  28.1882753  60.2358903  76.8035433  27.9942753  60.3168903
  77.9745433  28.0232753  61.0288903  77.5725433  28.1352753  60.3648903
  74.4025433  34.9182753  51.1218903  74.8415433  34.2212753  51.4098903
  74.6095433  35.5422753  51.6948903  74.4985433  34.9072753  51.2488903
  71.4985433  27.8812753  62.5518903  72.2205433  28.3692753  62.5148903
  71.2285433  27.8512753  61.7228903  71.5655433  27.9492753  62.4238903
  74.7285433  23.0522753  59.2868903  75.5745433  22.8622753  59.3848903
  74.3585433  22.2752753  59.1488903  74.7985433  22.9092753  59.2808903
  69.5495433  24.3902753  55.9418903  70.0385433  24.0982753  56.6028903
  69.6785433  23.7972753  55.3148903  69.6405433  24.2592753  55.9468903
  74.0745433  25.8242753  51.4278903  73.4645433  25.4192753  51.9018903
  73.6885433  25.9422753  50.6548903  73.9275433  25.7812753  51.3838903
  70.8935433  28.9332753  66.8298903  70.4725433  28.4152753  66.2688903
  70.5415433  29.7192753  66.6868903  70.7795433  28.9732753  66.7258903
  75.5295433  24.2852753  54.1378903  75.8015433  25.1112753  54.2048903
  74.6665433  24.3602753  54.0418903  75.4425433  24.4182753  54.1328903
  69.0095433  20.2552753  60.6738903  69.0535433  20.5992753  59.8728903
  69.7645433  20.4922753  61.0408903  69.1275433  20.3412753  60.6098903
  75.6325433  30.7442753  63.4478903  75.3345433  31.3362753  64.0148903
  75.6875433  31.1862753  62.6988903  75.5965433  30.8972753  63.4208903
  73.6115433  29.6942753  66.8458903  72.8055433  29.4042753  67.0128903
  73.5225433  30.5622753  66.8518903  73.4795433  29.7792753  66.8708903
  74.8585433  22.7702753  65.6798903  75.0195433  22.0262753  66.1068903
  74.8135433  22.5212753  64.8448903  74.8755433  22.6232753  65.6198903
  77.4125433  34.5602753  58.1668903  77.9585433  35.2392753  58.2208903
  77.0625433  34.6422753  57.3718903  77.4415433  34.6732753  58.0568903
  76.6105433  18.5782753  65.5598903  77.3155433  18.8982753  65.1578903
  76.8515433  17.7712753  65.7868903  76.7495433  18.5062753  65.5338903
  75.5955433  32.7882753  61.5558903  74.9715433  33.3702753  61.3738903
  75.8435433  32.5022753  60.7698903  75.5395433  32.8322753  61.4128903
  77.1895433  27.5642753  51.4708903  76.3845433  27.3872753  51.1858903
  77.1565433  28.4152753  51.6628903  77.0655433  27.6632753  51.4578903
  73.1195433  23.6312753  61.6208903  73.5595433  23.5282753  60.8748903
  73.6645433  23.3182753  62.2258903  73.2645433  23.5702753  61.5998903
  76.6665433  18.6162753  61.6678903  75.8405433  18.4672753  61.9048903
  76.6265433  18.6512753  60.7968903  76.5385433  18.5992753  61.5738903
  78.3075433  29.6562753  66.4558903  77.5125433  29.5922753  66.8068903
  78.3785433  30.5032753  66.2608903  78.2005433  29.7712753  66.4788903
  69.2315433  19.0142753  67.7028903  69.0915433  19.8092753  67.3718903
  68.4455433  18.7712753  67.9918903  69.0945433  19.0962753  67.6968903
  74.1375433  35.8632753  61.7728903  74.1485433  35.9222753  62.6428903
  73.7125433  35.1162753  61.6228903  74.0765433  35.7612753  61.8788903
  72.2955433  21.7582753  54.9278903  72.4215433  21.4292753  54.1298903
  71.4835433  21.5092753  55.1268903  72.1945433  21.6732753  54.8398903
  70.9015433  35.3612753  67.2148903  70.2475433  34.7922753  67.3128903
  70.5265433  36.1342753  67.3658903  70.7495433  35.3912753  67.2518903
  72.2725433  23.7692753  65.3438903  72.6475433  24.3882753  64.8568903
  72.9465433  23.2952753  65.6288903  72.4275433  23.7912753  65.3138903
  70.0475433  22.2172753  64.6188903  70.1245433  22.0482753  63.7658903
  70.7935433  22.6232753  64.8158903  70.1685433  22.2522753  64.5218903
  72.6015433  19.6272753  67.0298903  72.5205433  18.7832753  67.2358903
  72.2875433  19.6712753  66.2168903  72.5435433  19.5092753  66.9398903
  69.4445433  27.4432753  64.8428903  69.7645433  27.6622753  64.0618903
  69.3445433  26.5782753  64.7878903  69.4765433  27.3482753  64.7198903
  70.9005433  23.3792753  51.4608903  70.2285433  23.3932753  52.0168903
  70.9955433  22.5312753  51.2768903  70.8155433  23.2562753  51.5158903
  74.8885433  32.0842753  52.5748903  75.3295433  32.1642753  53.3228903
  74.0835433  31.8682753  52.8328903  74.8345433  32.0642753  52.7238903
  74.2075433  26.7352753  66.2278903  73.8115433  27.5092753  66.3028903
  73.8015433  26.3622753  65.5518903  74.0895433  26.7942753  66.1388903
  72.2175433  31.1542753  53.1758903  71.9735433  30.8472753  53.9558903
  72.1845433  30.4512753  52.6598903  72.1765433  31.0052753  53.2148903
  75.0365433  29.3992753  51.9188903  74.2185433  29.1312753  52.0588903
  75.0085433  30.2512753  52.1038903  74.9115433  29.4862753  51.9668903
  74.6365433  19.7122753  63.6778903  73.7725433  19.7962753  63.7578903
  74.8565433  19.1982753  64.3468903  74.5415433  19.6492753  63.7888903
  76.2425433  24.7892753  67.2558903  75.9205433  24.2132753  66.6858903
  75.8835433  25.5442753  67.0098903  76.1425433  24.8152753  67.1358903
  77.0385433  18.0412753  51.8828903  77.1165433  18.2882753  51.0498903
  76.2955433  18.4182753  52.1408903  76.9405433  18.1332753  51.7978903
  74.6775433  35.1452753  67.5038903  74.7185433  35.2712753  68.3668903
  75.3285433  34.5852753  67.3478903  74.7795433  35.0812753  67.6088903
  71.8565433  19.7952753  64.3258903  71.5135433  19.0282753  64.0918903
  71.1615433  20.3192753  64.3898903  71.7035433  19.7592753  64.3008903
  72.2705433  33.5282753  68.8638903  72.8655433  33.9592753  69.3358903
  71.9065433  34.1522753  68.3748903  72.3045433  33.6842753  68.8608903
  70.5095433  23.1092753  58.2818903  70.1415433  23.4112753  59.0128903
  71.0435433  22.4802753  58.5658903  70.5335433  23.0612753  58.4318903
  70.1975433  31.5172753  65.7928903  69.6235433  31.9332753  66.3018903
  70.9305433  31.9822753  65.8878903  70.2215433  31.6472753  65.8818903
  71.9835433  34.7842753  54.5678903  71.8385433  34.9402753  53.7218903
  72.8495433  34.8632753  54.6458903  72.0905433  34.8192753  54.4548903
  76.1505433  27.1812753  54.2958903  76.2505433  27.3202753  53.4408903
  76.9685433  27.1212753  54.5918903  76.2855433  27.1922753  54.2128903
  75.2895433  20.1562753  67.4118903  75.5235433  19.5802753  66.7988903
  74.4475433  19.9752753  67.5528903  75.1995433  20.0442753  67.3418903
  72.6705433  33.5992753  61.0448903  72.5915433  32.7892753  60.7288903
  72.2265433  34.0862753  60.4728903  72.5935433  33.5512753  60.9138903
  70.2425433  35.8432753  64.6258903  70.7355433  35.7872753  65.3438903
  70.4305433  35.1102753  64.1908903  70.3435433  35.7262753  64.6678903
  69.3585433  29.4152753  37.8936493  68.9175433  29.5332753  38.6366493
  69.0755433  28.6402753  37.6086493  69.2515433  29.3182753  37.9616493
  69.1015433  23.2072753  34.4006493  68.3235433  23.3692753  34.0406493
  69.1405433  22.3362753  34.4226493  68.9925433  23.1022753  34.3506493
  72.2405433  28.4702753  33.0726493  71.8485433  28.0992753  32.3866493
  72.1605433  27.8722753  33.7016493  72.1705433  28.3272753  33.0636493
  71.8675433  30.1112753  36.9726493  72.4755433  29.9412753  37.5756493
  71.1165433  29.9712753  37.3936493  71.8465433  30.0652753  37.1236493
  76.1495433  19.4462753  36.9216493  76.0795433  20.1232753  36.3756493
  76.8905433  19.0582753  36.6726493  76.2485433  19.4892753  36.8036493
  70.7585433  33.2022753  33.0496493  71.2255433  33.2862753  32.3176493
  71.2135433  32.6242753  33.5186493  70.8945433  33.1292753  33.0106493
  69.2985433  32.1502753  44.1486493  69.4275433  31.8702753  44.9646493
  68.6885433  31.6092753  43.8396493  69.2275433  32.0292753  44.2236493
  75.8725433  29.6752753  49.2156493  75.6365433  29.6722753  50.0556493
  75.1245433  29.5272753  48.7916493  75.7265433  29.6522753  49.2766493
  70.7445433  26.6712753  38.3506493  70.2825433  26.2792753  37.7236493
  71.4445433  26.1582753  38.4426493  70.7795433  26.5382753  38.2716493
  75.2525433  22.2812753  43.6976493  75.9305433  22.2992753  43.1486493
  75.2075433  21.4452753  43.9426493  75.3455433  22.1602753  43.6526493
  75.8545433  32.8672753  46.4786493  75.9925433  33.6272753  46.0716493
  76.6455433  32.5022753  46.5056493  75.9915433  32.9262753  46.4226493
  72.7455433  24.7712753  38.3736493  73.5625433  24.5842753  38.6166493
  72.2685433  24.1572753  38.7696493  72.7955433  24.6532753  38.4686493
  76.9495433  30.7522753  40.9836493  77.2975433  29.9532753  41.0136493
  77.6145433  31.2562753  40.7286493  77.0995433  30.7082753  40.9506493
  77.0065433  30.2012753  37.1946493  77.3375433  29.5572753  37.6806493
  77.2465433  29.9902753  36.3836493  77.0905433  30.0752753  37.1466493
  73.3425433  19.8652753  37.6396493  73.0465433  20.3662753  36.9896493
  74.2095433  19.9432753  37.5826493  73.4265433  19.9512753  37.5356493
  76.3215433  19.0072753  39.8626493  76.3945433  19.8672753  39.9916493
  76.2835433  18.9322753  38.9946493  76.3265433  19.1232753  39.7536493
  69.2005433  24.4322753  41.3636493  68.9445433  25.2632753  41.2886493
  68.5365433  24.0492753  41.7806493  69.0645433  24.4982753  41.4146493
  69.1105433  34.1422753  39.2636493  68.5185433  34.7002753  38.9506493
  69.5365433  33.8732753  38.5516493  69.0865433  34.1842753  39.1126493
  74.9505433  31.9862753  36.7436493  74.3715433  31.7112753  37.3356493
  75.5745433  31.3772753  36.7686493  74.9575433  31.8562753  36.8346493
  72.2295433  19.2492753  41.8546493  71.7085433  18.6212753  41.5466493
  72.8205433  18.8122753  42.3256493  72.2405433  19.0912753  41.8786493
  75.5355433  21.3822753  51.1526493  75.6525433  20.9282753  50.4166493
  75.8235433  22.1802753  50.9496493  75.5955433  21.4332753  51.0136493
  70.6555433  32.8122753  37.1946493  71.3115433  32.2372753  37.2096493
  71.0445433  33.5612753  36.9736493  70.8105433  32.8372753  37.1646493
  71.2685433  20.9792753  50.1366493  70.4905433  20.5892753  50.0646493
  71.7595433  20.5672753  49.5456493  71.2255433  20.8602753  50.0386493
  71.4735433  31.2992753  40.6946493  71.8965433  30.9432753  40.0206493
  71.7975433  30.8772753  41.3866493  71.5835433  31.1842753  40.6976493
  74.7045433  34.1512753  39.9906493  75.5485433  34.2552753  39.7956493
  74.4075433  34.9692753  40.0586493  74.7855433  34.2872753  39.9716493
  77.9175433  18.6222753  49.3046493  78.0955433  17.8132753  49.0296493
  77.7745433  19.0632753  48.5656493  77.9225433  18.5682753  49.1546493
  73.7025433  35.3702753  45.7306493  73.9945433  35.3032753  46.5506493
  73.0765433  34.7652753  45.6856493  73.6535433  35.2712753  45.8456493
  68.6165433  21.5272753  47.7226493  68.6125433  22.1142753  48.3686493
  69.2105433  21.8392753  47.1656493  68.7035433  21.6602753  47.7356493
  69.5535433  21.1222753  36.6376493  69.4395433  20.2582753  36.6686493
  69.0785433  21.4162753  37.3076493  69.4665433  21.0382753  36.7406493
  71.6955433  33.5322753  44.8526493  70.9975433  33.0242753  44.9786493
  71.9555433  33.3272753  44.0446493  71.6305433  33.4272753  44.7516493
  77.4555433  21.6382753  39.7956493  77.5295433  22.2062753  39.1376493
  77.5765433  22.1302753  40.5056493  77.4835433  21.7952753  39.8036493
  73.0565433  32.3832753  47.4196493  73.8975433  32.4462753  47.1976493
  73.0195433  32.7802753  48.1956493  73.1755433  32.4512753  47.5016493
  72.0635433  17.4612753  38.1436493  72.5995433  18.1492753  38.1336493
  72.0665433  17.1872753  37.3156493  72.1425433  17.5222753  38.0196493
  75.0195433  27.8942753  42.1686493  75.1915433  27.6842753  42.9976493
  74.3645433  27.3602753  41.9526493  74.9485433  27.7842753  42.2596493
  75.7695433  27.8322753  44.7586493  75.8225433  28.6792753  44.9606493
  75.4845433  27.4622753  45.4956493  75.7355433  27.9022753  44.8966493
  68.5905433  32.2032753  50.9696493  69.3465433  32.5522753  51.2276493
  68.7675433  31.3502753  50.9126493  68.7285433  32.1282753  50.9996493
  72.5115433  21.2712753  39.7976493  72.7835433  20.8412753  39.0896493
  72.3355433  20.6352753  40.3686493  72.5255433  21.1142753  39.7776493
  72.3355433  28.6982753  39.3466493  73.1865433  28.6182753  39.1736493
  71.9785433  28.0162753  38.9346493  72.4085433  28.5852753  39.2596493
  71.1025433  35.4232753  40.5836493  70.4295433  34.9252753  40.3386493
  71.5055433  35.6082753  39.8326493  71.0625433  35.3772753  40.4366493
  70.6525433  22.3732753  42.8796493  71.4955433  22.5932753  42.8366493
  70.2635433  22.9462753  42.3486493  70.7195433  22.4902753  42.7946493
  74.7035433  28.7052753  37.5816493  75.4165433  29.2002753  37.6716493
  74.9255433  28.1382753  36.9556493  74.8415433  28.6942753  37.5026493
  68.8595433  30.3482753  40.9016493  68.1925433  30.8362753  41.1776493
  69.5395433  30.8932753  40.9306493  68.8615433  30.5002753  40.9466493
  76.5065433  24.0582753  50.9976493  76.0225433  24.6352753  51.4396493
  76.4785433  24.3532753  50.1766493  76.4305433  24.1872753  50.9416493
  68.9255433  27.0322753  36.0046493  68.7405433  26.1932753  36.1566493
  69.5845433  26.9962753  35.4346493  68.9955433  26.9032753  35.9426493
  69.0975433  31.1962753  35.5796493  69.6495433  31.7652753  35.9436493
  68.8655433  30.6812753  36.2446493  69.1445433  31.2042753  35.7316493
  73.3015433  30.1962753  42.6686493  73.7685433  30.4852753  43.3466493
  73.8735433  29.7182753  42.2146493  73.4555433  30.1682753  42.7016493
  68.9275433  29.6452753  33.2076493  69.6835433  29.2132753  33.2656493
  68.9425433  30.1772753  33.8986493  69.0415433  29.6602753  33.3186493
  69.8675433  27.8662753  41.2126493  70.2985433  27.7372753  40.4656493
  69.6625433  28.7142753  41.1866493  69.9005433  27.9722753  41.0986493
  76.2135433  21.4302753  34.8626493  76.2115433  21.3132753  33.9976493
  76.0325433  22.2782753  34.9546493  76.1865433  21.5382753  34.7486493
  73.9515433  31.3822753  39.4946493  74.0775433  32.2252753  39.6816493
  74.6195433  30.9832753  39.8906493  74.0695433  31.4482753  39.5806493
  72.0815433  24.8652753  49.3566493  71.5455433  24.3592753  49.8246493
  72.1015433  24.4752753  48.5766493  72.0045433  24.7322753  49.3106493
  72.5665433  24.2622753  34.4966493  72.4385433  23.8142753  35.2346493
  71.9845433  23.9202753  33.9446493  72.4615433  24.1452753  34.5246493
  72.7335433  26.0922753  41.0956493  71.9525433  26.0332753  40.7126493
  72.8055433  25.3402753  41.5326493  72.6285433  25.9732753  41.1036493
  73.1635433  25.8292753  44.5636493  73.1885433  25.1542753  44.0126493
  72.5175433  26.3252753  44.2516493  73.0725433  25.8022753  44.4366493
  77.2635433  34.6062753  43.9556493  76.9865433  33.9652753  43.4326493
  77.0555433  35.3322753  43.5176493  77.1925433  34.6192753  43.8136493
  70.9625433  27.1842753  50.1226493  70.9255433  27.6852753  49.4086493
  71.2935433  26.4322753  49.8276493  71.0055433  27.1462753  49.9736493
  76.8615433  32.2342753  49.5576493  77.2155433  32.0562753  50.3346493
  76.4255433  31.5052753  49.3586493  76.8495433  32.1002753  49.6436493
  77.8335433  22.9812753  42.1956493  78.3135433  23.6802753  42.4036493
  78.2065433  22.3342753  42.6466493  77.9595433  22.9892753  42.2926493
  74.9445433  34.7492753  36.1426493  74.7975433  33.9732753  36.5136493
  75.6335433  34.6022753  35.6276493  75.0245433  34.6122753  36.1216493
  74.6155433  18.4922753  34.1306493  74.7125433  18.3852753  34.9916493
  73.9075433  18.9982753  34.0656493  74.5255433  18.5512753  34.2486493
  77.2365433  34.2652753  34.5446493  77.8585433  34.4282753  35.1346493
  77.2725433  34.9562753  34.0126493  77.3335433  34.3912753  34.5536493
  71.7375433  26.7992753  35.3736493  72.0615433  26.0202753  35.1516493
  72.3835433  27.1672753  35.8286493  71.8805433  26.7382753  35.4076493
  68.7345433  18.4602753  36.3416493  68.8635433  17.7522753  35.8496493
  68.3675433  18.1422753  37.0666493  68.6995433  18.3082753  36.3766493
  78.4275433  26.1412753  36.7986493  78.4865433  26.7912753  37.3776493
  78.2385433  25.4452753  37.2896493  78.4085433  26.1342753  36.9566493
  72.9235433  20.6582753  33.3106493  72.4125433  20.7112753  32.6046493
  73.7075433  20.8982753  33.0146493  72.9635433  20.7012753  33.1626493
  77.6505433  28.1882753  41.2296493  76.8035433  27.9942753  41.3106493
  77.9745433  28.0232753  42.0226493  77.5725433  28.1352753  41.3586493
  74.4025433  34.9182753  32.1156493  74.8415433  34.2212753  32.4036493
  74.6095433  35.5422753  32.6886493  74.4985433  34.9072753  32.2426493
  71.4985433  27.8812753  43.5456493  72.2205433  28.3692753  43.5086493
  71.2285433  27.8512753  42.7166493  71.5655433  27.9492753  43.4176493
  74.7285433  23.0522753  40.2806493  75.5745433  22.8622753  40.3786493
  74.3585433  22.2752753  40.1426493  74.7985433  22.9092753  40.2746493
  69.5495433  24.3902753  36.9356493  70.0385433  24.0982753  37.5966493
  69.6785433  23.7972753  36.3086493  69.6405433  24.2592753  36.9406493
  74.0745433  25.8242753  32.4216493  73.4645433  25.4192753  32.8956493
  73.6885433  25.9422753  31.6486493  73.9275433  25.7812753  32.3776493
  70.8935433  28.9332753  47.8236493  70.4725433  28.4152753  47.2626493
  70.5415433  29.7192753  47.6806493  70.7795433  28.9732753  47.7196493
  75.5295433  24.2852753  35.1316493  75.8015433  25.1112753  35.1986493
  74.6665433  24.3602753  35.0356493  75.4425433  24.4182753  35.1266493
  69.0095433  20.2552753  41.6676493  69.0535433  20.5992753  40.8666493
  69.7645433  20.4922753  42.0346493  69.1275433  20.3412753  41.6036493
  75.6325433  30.7442753  44.4416493  75.3345433  31.3362753  45.0086493
  75.6875433  31.1862753  43.6926493  75.5965433  30.8972753  44.4146493
  73.6115433  29.6942753  47.8396493  72.8055433  29.4042753  48.0066493
  73.5225433  30.5622753  47.8456493  73.4795433  29.7792753  47.8646493
  74.8585433  22.7702753  46.6736493  75.0195433  22.0262753  47.1006493
  74.8135433  22.5212753  45.8386493  74.8755433  22.6232753  46.6136493
  77.4125433  34.5602753  39.1606493  77.9585433  35.2392753  39.2146493
  77.0625433  34.6422753  38.3656493  77.4415433  34.6732753  39.0506493
  76.6105433  18.5782753  46.5536493  77.3155433  18.8982753  46.1516493
  76.8515433  17.7712753  46.7806493  76.7495433  18.5062753  46.5276493
  75.5955433  32.7882753  42.5496493  74.9715433  33.3702753  42.3676493
  75.8435433  32.5022753  41.7636493  75.5395433  32.8322753  42.4066493
  77.1895433  27.5642753  32.4646493  76.3845433  27.3872753  32.1796493
  77.1565433  28.4152753  32.6566493  77.0655433  27.6632753  32.4516493
  73.1195433  23.6312753  42.6146493  73.5595433  23.5282753  41.8686493
  73.6645433  23.3182753  43.2196493  73.2645433  23.5702753  42.5936493
  76.6665433  18.6162753  42.6616493  75.8405433  18.4672753  42.8986493
  76.6265433  18.6512753  41.7906493  76.5385433  18.5992753  42.5676493
  78.3075433  29.6562753  47.4496493  77.5125433  29.5922753  47.8006493
  78.3785433  30.5032753  47.2546493  78.2005433  29.7712753  47.4726493
  69.2315433  19.0142753  48.6966493  69.0915433  19.8092753  48.3656493
  68.4455433  18.7712753  48.9856493  69.0945433  19.0962753  48.6906493
  74.1375433  35.8632753  42.7666493  74.1485433  35.9222753  43.6366493
  73.7125433  35.1162753  42.6166493  74.0765433  35.7612753  42.8726493
  72.2955433  21.7582753  35.9216493  72.4215433  21.4292753  35.1236493
  71.4835433  21.5092753  36.1206493  72.1945433  21.6732753  35.8336493
  70.9015433  35.3612753  48.2086493  70.2475433  34.7922753  48.3066493
  70.5265433  36.1342753  48.3596493  70.7495433  35.3912753  48.2456493
  72.2725433  23.7692753  46.3376493  72.6475433  24.3882753  45.8506493
  72.9465433  23.2952753  46.6226493  72.4275433  23.7912753  46.3076493
  70.0475433  22.2172753  45.6126493  70.1245433  22.0482753  44.7596493
  70.7935433  22.6232753  45.8096493  70.1685433  22.2522753  45.5156493
  72.6015433  19.6272753  48.0236493  72.5205433  18.7832753  48.2296493
  72.2875433  19.6712753  47.2106493  72.5435433  19.5092753  47.9336493
  69.4445433  27.4432753  45.8366493  69.7645433  27.6622753  45.0556493
  69.3445433  26.5782753  45.7816493  69.4765433  27.3482753  45.7136493
  70.9005433  23.3792753  32.4546493  70.2285433  23.3932753  33.0106493
  70.9955433  22.5312753  32.2706493  70.8155433  23.2562753  32.5096493
  74.8885433  32.0842753  33.5686493  75.3295433  32.1642753  34.3166493
  74.0835433  31.8682753  33.8266493  74.8345433  32.0642753  33.7176493
  74.2075433  26.7352753  47.2216493  73.8115433  27.5092753  47.2966493
  73.8015433  26.3622753  46.5456493  74.0895433  26.7942753  47.1326493
  72.2175433  31.1542753  34.1696493  71.9735433  30.8472753  34.9496493
  72.1845433  30.4512753  33.6536493  72.1765433  31.0052753  34.2086493
  75.0365433  29.3992753  32.9126493  74.2185433  29.1312753  33.0526493
  75.0085433  30.2512753  33.0976493  74.9115433  29.4862753  32.9606493
  74.6365433  19.7122753  44.6716493  73.7725433  19.7962753  44.7516493
  74.8565433  19.1982753  45.3406493  74.5415433  19.6492753  44.7826493
  76.2425433  24.7892753  48.2496493  75.9205433  24.2132753  47.6796493
  75.8835433  25.5442753  48.0036493  76.1425433  24.8152753  48.1296493
  77.0385433  18.0412753  32.8766493  77.1165433  18.2882753  32.0436493
  76.2955433  18.4182753  33.1346493  76.9405433  18.1332753  32.7916493
  74.6775433  35.1452753  48.4976493  74.7185433  35.2712753  49.3606493
  75.3285433  34.5852753  48.3416493  74.7795433  35.0812753  48.6026493
  71.8565433  19.7952753  45.3196493  71.5135433  19.0282753  45.0856493
  71.1615433  20.3192753  45.3836493  71.7035433  19.7592753  45.2946493
  72.2705433  33.5282753  49.8576493  72.8655433  33.9592753  50.3296493
  71.9065433  34.1522753  49.3686493  72.3045433  33.6842753  49.8546493
  70.5095433  23.1092753  39.2756493  70.1415433  23.4112753  40.0066493
  71.0435433  22.4802753  39.5596493  70.5335433  23.0612753  39.4256493
  70.1975433  31.5172753  46.7866493  69.6235433  31.9332753  47.2956493
  70.9305433  31.9822753  46.8816493  70.2215433  31.6472753  46.8756493
  71.9835433  34.7842753  35.5616493  71.8385433  34.9402753  34.7156493
  72.8495433  34.8632753  35.6396493  72.0905433  34.8192753  35.4486493
  76.1505433  27.1812753  35.2896493  76.2505433  27.3202753  34.4346493
  76.9685433  27.1212753  35.5856493  76.2855433  27.1922753  35.2066493
  75.2895433  20.1562753  48.4056493  75.5235433  19.5802753  47.7926493
  74.4475433  19.9752753  48.5466493  75.1995433  20.0442753  48.3356493
  72.6705433  33.5992753  42.0386493  72.5915433  32.7892753  41.7226493
  72.2265433  34.0862753  41.4666493  72.5935433  33.5512753  41.9076493
  70.2425433  35.8432753  45.6196493  70.7355433  35.7872753  46.3376493
  70.4305433  35.1102753  45.1846493  70.3435433  35.7262753  45.6616493
  69.3585433  29.4152753  18.8874083  68.9175433  29.5332753  19.6304083
  69.0755433  28.6402753  18.6024083  69.2515433  29.3182753  18.9554083
  69.1015433  23.2072753  15.3944083  68.3235433  23.3692753  15.0344083
  69.1405433  22.3362753  15.4164083  68.9925433  23.1022753  15.3444083
  72.2405433  28.4702753  14.0664083  71.8485433  28.0992753  13.3804083
  72.1605433  27.8722753  14.6954083  72.1705433  28.3272753  14.0574083
  71.8675433  30.1112753  17.9664083  72.4755433  29.9412753  18.5694083
  71.1165433  29.9712753  18.3874083  71.8465433  30.0652753  18.1174083
  76.1495433  19.4462753  17.9154083  76.0795433  20.1232753  17.3694083
  76.8905433  19.0582753  17.6664083  76.2485433  19.4892753  17.7974083
  70.7585433  33.2022753  14.0434083  71.2255433  33.2862753  13.3114083
  71.2135433  32.6242753  14.5124083  70.8945433  33.1292753  14.0044083
  69.2985433  32.1502753  25.1424083  69.4275433  31.8702753  25.9584083
  68.6885433  31.6092753  24.8334083  69.2275433  32.0292753  25.2174083
  75.8725433  29.6752753  30.2094083  75.6365433  29.6722753  31.0494083
  75.1245433  29.5272753  29.7854083  75.7265433  29.6522753  30.2704083
  70.7445433  26.6712753  19.3444083  70.2825433  26.2792753  18.7174083
  71.4445433  26.1582753  19.4364083  70.7795433  26.5382753  19.2654083
  75.2525433  22.2812753  24.6914083  75.9305433  22.2992753  24.1424083
  75.2075433  21.4452753  24.9364083  75.3455433  22.1602753  24.6464083
  75.8545433  32.8672753  27.4724083  75.9925433  33.6272753  27.0654083
  76.6455433  32.5022753  27.4994083  75.9915433  32.9262753  27.4164083
  72.7455433  24.7712753  19.3674083  73.5625433  24.5842753  19.6104083
  72.2685433  24.1572753  19.7634083  72.7955433  24.6532753  19.4624083
  76.9495433  30.7522753  21.9774083  77.2975433  29.9532753  22.0074083
  77.6145433  31.2562753  21.7224083  77.0995433  30.7082753  21.9444083
  77.0065433  30.2012753  18.1884083  77.3375433  29.5572753  18.6744083
  77.2465433  29.9902753  17.3774083  77.0905433  30.0752753  18.1404083
  73.3425433  19.8652753  18.6334083  73.0465433  20.3662753  17.9834083
  74.2095433  19.9432753  18.5764083  73.4265433  19.9512753  18.5294083
  76.3215433  19.0072753  20.8564083  76.3945433  19.8672753  20.9854083
  76.2835433  18.9322753  19.9884083  76.3265433  19.1232753  20.7474083
  69.2005433  24.4322753  22.3574083  68.9445433  25.2632753  22.2824083
  68.5365433  24.0492753  22.7744083  69.0645433  24.4982753  22.4084083
  69.1105433  34.1422753  20.2574083  68.5185433  34.7002753  19.9444083
  69.5365433  33.8732753  19.5454083  69.0865433  34.1842753  20.1064083
  74.9505433  31.9862753  17.7374083  74.3715433  31.7112753  18.3294083
  75.5745433  31.3772753  17.7624083  74.9575433  31.8562753  17.8284083
  72.2295433  19.2492753  22.8484083  71.7085433  18.6212753  22.5404083
  72.8205433  18.8122753  23.3194083  72.2405433  19.0912753  22.8724083
  75.5355433  21.3822753  32.1464083  75.6525433  20.9282753  31.4104083
  75.8235433  22.1802753  31.9434083  75.5955433  21.4332753  32.0074083
  70.6555433  32.8122753  18.1884083  71.3115433  32.2372753  18.2034083
  71.0445433  33.5612753  17.9674083  70.8105433  32.8372753  18.1584083
  71.2685433  20.9792753  31.1304083  70.4905433  20.5892753  31.0584083
  71.7595433  20.5672753  30.5394083  71.2255433  20.8602753  31.0324083
  71.4735433  31.2992753  21.6884083  71.8965433  30.9432753  21.0144083
  71.7975433  30.8772753  22.3804083  71.5835433  31.1842753  21.6914083
  74.7045433  34.1512753  20.9844083  75.5485433  34.2552753  20.7894083
  74.4075433  34.9692753  21.0524083  74.7855433  34.2872753  20.9654083
  77.9175433  18.6222753  30.2984083  78.0955433  17.8132753  30.0234083
  77.7745433  19.0632753  29.5594083  77.9225433  18.5682753  30.1484083
  73.7025433  35.3702753  26.7244083  73.9945433  35.3032753  27.5444083
  73.0765433  34.7652753  26.6794083  73.6535433  35.2712753  26.8394083
  68.6165433  21.5272753  28.7164083  68.6125433  22.1142753  29.3624083
  69.2105433  21.8392753  28.1594083  68.7035433  21.6602753  28.7294083
  69.5535433  21.1222753  17.6314083  69.4395433  20.2582753  17.6624083
  69.0785433  21.4162753  18.3014083  69.4665433  21.0382753  17.7344083
  71.6955433  33.5322753  25.8464083  70.9975433  33.0242753  25.9724083
  71.9555433  33.3272753  25.0384083  71.6305433  33.4272753  25.7454083
  77.4555433  21.6382753  20.7894083  77.5295433  22.2062753  20.1314083
  77.5765433  22.1302753  21.4994083  77.4835433  21.7952753  20.7974083
  73.0565433  32.3832753  28.4134083  73.8975433  32.4462753  28.1914083
  73.0195433  32.7802753  29.1894083  73.1755433  32.4512753  28.4954083
  72.0635433  17.4612753  19.1374083  72.5995433  18.1492753  19.1274083
  72.0665433  17.1872753  18.3094083  72.1425433  17.5222753  19.0134083
  75.0195433  27.8942753  23.1624083  75.1915433  27.6842753  23.9914083
  74.3645433  27.3602753  22.9464083  74.9485433  27.7842753  23.2534083
  75.7695433  27.8322753  25.7524083  75.8225433  28.6792753  25.9544083
  75.4845433  27.4622753  26.4894083  75.7355433  27.9022753  25.8904083
  68.5905433  32.2032753  31.9634083  69.3465433  32.5522753  32.2214083
  68.7675433  31.3502753  31.9064083  68.7285433  32.1282753  31.9934083
  72.5115433  21.2712753  20.7914083  72.7835433  20.8412753  20.0834083
  72.3355433  20.6352753  21.3624083  72.5255433  21.1142753  20.7714083
  72.3355433  28.6982753  20.3404083  73.1865433  28.6182753  20.1674083
  71.9785433  28.0162753  19.9284083  72.4085433  28.5852753  20.2534083
  71.1025433  35.4232753  21.5774083  70.4295433  34.9252753  21.3324083
  71.5055433  35.6082753  20.8264083  71.0625433  35.3772753  21.4304083
  70.6525433  22.3732753  23.8734083  71.4955433  22.5932753  23.8304083
  70.2635433  22.9462753  23.3424083  70.7195433  22.4902753  23.7884083
  74.7035433  28.7052753  18.5754083  75.4165433  29.2002753  18.6654083
  74.9255433  28.1382753  17.9494083  74.8415433  28.6942753  18.4964083
  68.8595433  30.3482753  21.8954083  68.1925433  30.8362753  22.1714083
  69.5395433  30.8932753  21.9244083  68.8615433  30.5002753  21.9404083
  76.5065433  24.0582753  31.9914083  76.0225433  24.6352753  32.4334083
  76.4785433  24.3532753  31.1704083  76.4305433  24.1872753  31.9354083
  68.9255433  27.0322753  16.9984083  68.7405433  26.1932753  17.1504083
  69.5845433  26.9962753  16.4284083  68.9955433  26.9032753  16.9364083
  69.0975433  31.1962753  16.5734083  69.6495433  31.7652753  16.9374083
  68.8655433  30.6812753  17.2384083  69.1445433  31.2042753  16.7254083
  73.3015433  30.1962753  23.6624083  73.7685433  30.4852753  24.3404083
  73.8735433  29.7182753  23.2084083  73.4555433  30.1682753  23.6954083
  68.9275433  29.6452753  14.2014083  69.6835433  29.2132753  14.2594083
  68.9425433  30.1772753  14.8924083  69.0415433  29.6602753  14.3124083
  69.8675433  27.8662753  22.2064083  70.2985433  27.7372753  21.4594083
  69.6625433  28.7142753  22.1804083  69.9005433  27.9722753  22.0924083
  76.2135433  21.4302753  15.8564083  76.2115433  21.3132753  14.9914083
  76.0325433  22.2782753  15.9484083  76.1865433  21.5382753  15.7424083
  73.9515433  31.3822753  20.4884083  74.0775433  32.2252753  20.6754083
  74.6195433  30.9832753  20.8844083  74.0695433  31.4482753  20.5744083
  72.0815433  24.8652753  30.3504083  71.5455433  24.3592753  30.8184083
  72.1015433  24.4752753  29.5704083  72.0045433  24.7322753  30.3044083
  72.5665433  24.2622753  15.4904083  72.4385433  23.8142753  16.2284083
  71.9845433  23.9202753  14.9384083  72.4615433  24.1452753  15.5184083
  72.7335433  26.0922753  22.0894083  71.9525433  26.0332753  21.7064083
  72.8055433  25.3402753  22.5264083  72.6285433  25.9732753  22.0974083
  73.1635433  25.8292753  25.5574083  73.1885433  25.1542753  25.0064083
  72.5175433  26.3252753  25.2454083  73.0725433  25.8022753  25.4304083
  77.2635433  34.6062753  24.9494083  76.9865433  33.9652753  24.4264083
  77.0555433  35.3322753  24.5114083  77.1925433  34.6192753  24.8074083
  70.9625433  27.1842753  31.1164083  70.9255433  27.6852753  30.4024083
  71.2935433  26.4322753  30.8214083  71.0055433  27.1462753  30.9674083
  76.8615433  32.2342753  30.5514083  77.2155433  32.0562753  31.3284083
  76.4255433  31.5052753  30.3524083  76.8495433  32.1002753  30.6374083
  77.8335433  22.9812753  23.1894083  78.3135433  23.6802753  23.3974083
  78.2065433  22.3342753  23.6404083  77.9595433  22.9892753  23.2864083
  74.9445433  34.7492753  17.1364083  74.7975433  33.9732753  17.5074083
  75.6335433  34.6022753  16.6214083  75.0245433  34.6122753  17.1154083
  74.6155433  18.4922753  15.1244083  74.7125433  18.3852753  15.9854083
  73.9075433  18.9982753  15.0594083  74.5255433  18.5512753  15.2424083
  77.2365433  34.2652753  15.5384083  77.8585433  34.4282753  16.1284083
  77.2725433  34.9562753  15.0064083  77.3335433  34.3912753  15.5474083
  71.7375433  26.7992753  16.3674083  72.0615433  26.0202753  16.1454083
  72.3835433  27.1672753  16.8224083  71.8805433  26.7382753  16.4014083
  68.7345433  18.4602753  17.3354083  68.8635433  17.7522753  16.8434083
  68.3675433  18.1422753  18.0604083  68.6995433  18.3082753  17.3704083
  78.4275433  26.1412753  17.7924083  78.4865433  26.7912753  18.3714083
  78.2385433  25.4452753  18.2834083  78.4085433  26.1342753  17.9504083
  72.9235433  20.6582753  14.3044083  72.4125433  20.7112753  13.5984083
  73.7075433  20.8982753  14.0084083  72.9635433  20.7012753  14.1564083
  77.6505433  28.1882753  22.2234083  76.8035433  27.9942753  22.3044083
  77.9745433  28.0232753  23.0164083  77.5725433  28.1352753  22.3524083
  74.4025433  34.9182753  13.1094083  74.8415433  34.2212753  13.3974083
  74.6095433  35.5422753  13.6824083  74.4985433  34.9072753  13.2364083
  71.4985433  27.8812753  24.5394083  72.2205433  28.3692753  24.5024083
  71.2285433  27.8512753  23.7104083  71.5655433  27.9492753  24.4114083
  74.7285433  23.0522753  21.2744083  75.5745433  22.8622753  21.3724083
  74.3585433  22.2752753  21.1364083  74.7985433  22.9092753  21.2684083
  69.5495433  24.3902753  17.9294083  70.0385433  24.0982753  18.5904083
  69.6785433  23.7972753  17.3024083  69.6405433  24.2592753  17.9344083
  74.0745433  25.8242753  13.4154083  73.4645433  25.4192753  13.8894083
  73.6885433  25.9422753  12.6424083  73.9275433  25.7812753  13.3714083
  70.8935433  28.9332753  28.8174083  70.4725433  28.4152753  28.2564083
  70.5415433  29.7192753  28.6744083  70.7795433  28.9732753  28.7134083
  75.5295433  24.2852753  16.1254083  75.8015433  25.1112753  16.1924083
  74.6665433  24.3602753  16.0294083  75.4425433  24.4182753  16.1204083
  69.0095433  20.2552753  22.6614083  69.0535433  20.5992753  21.8604083
  69.7645433  20.4922753  23.0284083  69.1275433  20.3412753  22.5974083
  75.6325433  30.7442753  25.4354083  75.3345433  31.3362753  26.0024083
  75.6875433  31.1862753  24.6864083  75.5965433  30.8972753  25.4084083
  73.6115433  29.6942753  28.8334083  72.8055433  29.4042753  29.0004083
  73.5225433  30.5622753  28.8394083  73.4795433  29.7792753  28.8584083
  74.8585433  22.7702753  27.6674083  75.0195433  22.0262753  28.0944083
  74.8135433  22.5212753  26.8324083  74.8755433  22.6232753  27.6074083
  77.4125433  34.5602753  20.1544083  77.9585433  35.2392753  20.2084083
  77.0625433  34.6422753  19.3594083  77.4415433  34.6732753  20.0444083
  76.6105433  18.5782753  27.5474083  77.3155433  18.8982753  27.1454083
  76.8515433  17.7712753  27.7744083  76.7495433  18.5062753  27.5214083
  75.5955433  32.7882753  23.5434083  74.9715433  33.3702753  23.3614083
  75.8435433  32.5022753  22.7574083  75.5395433  32.8322753  23.4004083
  77.1895433  27.5642753  13.4584083  76.3845433  27.3872753  13.1734083
  77.1565433  28.4152753  13.6504083  77.0655433  27.6632753  13.4454083
  73.1195433  23.6312753  23.6084083  73.5595433  23.5282753  22.8624083
  73.6645433  23.3182753  24.2134083  73.2645433  23.5702753  23.5874083
  76.6665433  18.6162753  23.6554083  75.8405433  18.4672753  23.8924083
  76.6265433  18.6512753  22.7844083  76.5385433  18.5992753  23.5614083
  78.3075433  29.6562753  28.4434083  77.5125433  29.5922753  28.7944083
  78.3785433  30.5032753  28.2484083  78.2005433  29.7712753  28.4664083
  69.2315433  19.0142753  29.6904083  69.0915433  19.8092753  29.3594083
  68.4455433  18.7712753  29.9794083  69.0945433  19.0962753  29.6844083
  74.1375433  35.8632753  23.7604083  74.1485433  35.9222753  24.6304083
  73.7125433  35.1162753  23.6104083  74.0765433  35.7612753  23.8664083
  72.2955433  21.7582753  16.9154083  72.4215433  21.4292753  16.1174083
  71.4835433  21.5092753  17.1144083  72.1945433  21.6732753  16.8274083
  70.9015433  35.3612753  29.2024083  70.2475433  34.7922753  29.3004083
  70.5265433  36.1342753  29.3534083  70.7495433  35.3912753  29.2394083
  72.2725433  23.7692753  27.3314083  72.6475433  24.3882753  26.8444083
  72.9465433  23.2952753  27.6164083  72.4275433  23.7912753  27.3014083
  70.0475433  22.2172753  26.6064083  70.1245433  22.0482753  25.7534083
  70.7935433  22.6232753  26.8034083  70.1685433  22.2522753  26.5094083
  72.6015433  19.6272753  29.0174083  72.5205433  18.7832753  29.2234083
  72.2875433  19.6712753  28.2044083  72.5435433  19.5092753  28.9274083
  69.4445433  27.4432753  26.8304083  69.7645433  27.6622753  26.0494083
  69.3445433  26.5782753  26.7754083  69.4765433  27.3482753  26.7074083
  70.9005433  23.3792753  13.4484083  70.2285433  23.3932753  14.0044083
  70.9955433  22.5312753  13.2644083  70.8155433  23.2562753  13.5034083
  74.8885433  32.0842753  14.5624083  75.3295433  32.1642753  15.3104083
  74.0835433  31.8682753  14.8204083  74.8345433  32.0642753  14.7114083
  74.2075433  26.7352753  28.2154083  73.8115433  27.5092753  28.2904083
  73.8015433  26.3622753  27.5394083  74.0895433  26.7942753  28.1264083
  72.2175433  31.1542753  15.1634083  71.9735433  30.8472753  15.9434083
  72.1845433  30.4512753  14.6474083  72.1765433  31.0052753  15.2024083
  75.0365433  29.3992753  13.9064083  74.2185433  29.1312753  14.0464083
  75.0085433  30.2512753  14.0914083  74.9115433  29.4862753  13.9544083
  74.6365433  19.7122753  25.6654083  73.7725433  19.7962753  25.7454083
  74.8565433  19.1982753  26.3344083  74.5415433  19.6492753  25.7764083
  76.2425433  24.7892753  29.2434083  75.9205433  24.2132753  28.6734083
  75.8835433  25.5442753  28.9974083  76.1425433  24.8152753  29.1234083
  77.0385433  18.0412753  13.8704083  77.1165433  18.2882753  13.0374083
  76.2955433  18.4182753  14.1284083  76.9405433  18.1332753  13.7854083
  74.6775433  35.1452753  29.4914083  74.7185433  35.2712753  30.3544083
  75.3285433  34.5852753  29.3354083  74.7795433  35.0812753  29.5964083
  71.8565433  19.7952753  26.3134083  71.5135433  19.0282753  26.0794083
  71.1615433  20.3192753  26.3774083  71.7035433  19.7592753  26.2884083
  72.2705433  33.5282753  30.8514083  72.8655433  33.9592753  31.3234083
  71.9065433  34.1522753  30.3624083  72.3045433  33.6842753  30.8484083
  70.5095433  23.1092753  20.2694083  70.1415433  23.4112753  21.0004083
  71.0435433  22.4802753  20.5534083  70.5335433  23.0612753  20.4194083
  70.1975433  31.5172753  27.7804083  69.6235433  31.9332753  28.2894083
  70.9305433  31.9822753  27.8754083  70.2215433  31.6472753  27.8694083
  71.9835433  34.7842753  16.5554083  71.8385433  34.9402753  15.7094083
  72.8495433  34.8632753  16.6334083  72.0905433  34.8192753  16.4424083
  76.1505433  27.1812753  16.2834083  76.2505433  27.3202753  15.4284083
  76.9685433  27.1212753  16.5794083  76.2855433  27.1922753  16.2004083
  75.2895433  20.1562753  29.3994083  75.5235433  19.5802753  28.7864083
  74.4475433  19.9752753  29.5404083  75.1995433  20.0442753  29.3294083
  72.6705433  33.5992753  23.0324083  72.5915433  32.7892753  22.7164083
  72.2265433  34.0862753  22.4604083  72.5935433  33.5512753  22.9014083
  70.2425433  35.8432753  26.6134083  70.7355433  35.7872753  27.3314083
  70.4305433  35.1102753  26.1784083  70.3435433  35.7262753  26.6554083
  69.2985433  32.1502753   6.1361673  69.4275433  31.8702753   6.9521673
  68.6885433  31.6092753   5.8271673  69.2275433  32.0292753   6.2111673
  75.8725433  29.6752753  11.2031673  75.6365433  29.6722753  12.0431673
  75.1245433  29.5272753  10.7791673  75.7265433  29.6522753  11.2641673
  75.2525433  22.2812753   5.6851673  75.9305433  22.2992753   5.1361673
  75.2075433  21.4452753   5.9301673  75.3455433  22.1602753   5.6401673
  75.8545433  32.8672753   8.4661673  75.9925433  33.6272753   8.0591673
  76.6455433  32.5022753   8.4931673  75.9915433  32.9262753   8.4101673
  76.9495433  30.7522753   2.9711673  77.2975433  29.9532753   3.0011673
  77.6145433  31.2562753   2.7161673  77.0995433  30.7082753   2.9381673
  69.2005433  24.4322753   3.3511673  68.9445433  25.2632753   3.2761673
  68.5365433  24.0492753   3.7681673  69.0645433  24.4982753   3.4021673
  72.2295433  19.2492753   3.8421673  71.7085433  18.6212753   3.5341673
  72.8205433  18.8122753   4.3131673  72.2405433  19.0912753   3.8661673
  75.5355433  21.3822753  13.1401673  75.6525433  20.9282753  12.4041673
  75.8235433  22.1802753  12.9371673  75.5955433  21.4332753  13.0011673
  71.2685433  20.9792753  12.1241673  70.4905433  20.5892753  12.0521673
  71.7595433  20.5672753  11.5331673  71.2255433  20.8602753  12.0261673
  71.4735433  31.2992753   2.6821673  71.8965433  30.9432753   2.0081673
  71.7975433  30.8772753   3.3741673  71.5835433  31.1842753   2.6851673
  74.7045433  34.1512753   1.9781673  75.5485433  34.2552753   1.7831673
  74.4075433  34.9692753   2.0461673  74.7855433  34.2872753   1.9591673
  77.9175433  18.6222753  11.2921673  78.0955433  17.8132753  11.0171673
  77.7745433  19.0632753  10.5531673  77.9225433  18.5682753  11.1421673
  73.7025433  35.3702753   7.7181673  73.9945433  35.3032753   8.5381673
  73.0765433  34.7652753   7.6731673  73.6535433  35.2712753   7.8331673
  68.6165433  21.5272753   9.7101673  68.6125433  22.1142753  10.3561673
  69.2105433  21.8392753   9.1531673  68.7035433  21.6602753   9.7231673
  71.6955433  33.5322753   6.8401673  70.9975433  33.0242753   6.9661673
  71.9555433  33.3272753   6.0321673  71.6305433  33.4272753   6.7391673
  73.0565433  32.3832753   9.4071673  73.8975433  32.4462753   9.1851673
  73.0195433  32.7802753  10.1831673  73.1755433  32.4512753   9.4891673
  75.0195433  27.8942753   4.1561673  75.1915433  27.6842753   4.9851673
  74.3645433  27.3602753   3.9401673  74.9485433  27.7842753   4.2471673
  75.7695433  27.8322753   6.7461673  75.8225433  28.6792753   6.9481673
  75.4845433  27.4622753   7.4831673  75.7355433  27.9022753   6.8841673
  68.5905433  32.2032753  12.9571673  69.3465433  32.5522753  13.2151673
  68.7675433  31.3502753  12.9001673  68.7285433  32.1282753  12.9871673
  71.1025433  35.4232753   2.5711673  70.4295433  34.9252753   2.3261673
  71.5055433  35.6082753   1.8201673  71.0625433  35.3772753   2.4241673
  70.6525433  22.3732753   4.8671673  71.4955433  22.5932753   4.8241673
  70.2635433  22.9462753   4.3361673  70.7195433  22.4902753   4.7821673
  68.8595433  30.3482753   2.8891673  68.1925433  30.8362753   3.1651673
  69.5395433  30.8932753   2.9181673  68.8615433  30.5002753   2.9341673
  76.5065433  24.0582753  12.9851673  76.0225433  24.6352753  13.4271673
  76.4785433  24.3532753  12.1641673  76.4305433  24.1872753  12.9291673
  73.3015433  30.1962753   4.6561673  73.7685433  30.4852753   5.3341673
  73.8735433  29.7182753   4.2021673  73.4555433  30.1682753   4.6891673
  69.8675433  27.8662753   3.2001673  70.2985433  27.7372753   2.4531673
  69.6625433  28.7142753   3.1741673  69.9005433  27.9722753   3.0861673
  72.0815433  24.8652753  11.3441673  71.5455433  24.3592753  11.8121673
  72.1015433  24.4752753  10.5641673  72.0045433  24.7322753  11.2981673
  72.7335433  26.0922753   3.0831673  71.9525433  26.0332753   2.7001673
  72.8055433  25.3402753   3.5201673  72.6285433  25.9732753   3.0911673
  73.1635433  25.8292753   6.5511673  73.1885433  25.1542753   6.0001673
  72.5175433  26.3252753   6.2391673  73.0725433  25.8022753   6.4241673
  77.2635433  34.6062753   5.9431673  76.9865433  33.9652753   5.4201673
  77.0555433  35.3322753   5.5051673  77.1925433  34.6192753   5.8011673
  70.9625433  27.1842753  12.1101673  70.9255433  27.6852753  11.3961673
  71.2935433  26.4322753  11.8151673  71.0055433  27.1462753  11.9611673
  76.8615433  32.2342753  11.5451673  77.2155433  32.0562753  12.3221673
  76.4255433  31.5052753  11.3461673  76.8495433  32.1002753  11.6311673
  77.8335433  22.9812753   4.1831673  78.3135433  23.6802753   4.3911673
  78.2065433  22.3342753   4.6341673  77.9595433  22.9892753   4.2801673
  77.6505433  28.1882753   3.2171673  76.8035433  27.9942753   3.2981673
  77.9745433  28.0232753   4.0101673  77.5725433  28.1352753   3.3461673
  71.4985433  27.8812753   5.5331673  72.2205433  28.3692753   5.4961673
  71.2285433  27.8512753   4.7041673  71.5655433  27.9492753   5.4051673
  74.7285433  23.0522753   2.2681673  75.5745433  22.8622753   2.3661673
  74.3585433  22.2752753   2.1301673  74.7985433  22.9092753   2.2621673
  70.8935433  28.9332753   9.8111673  70.4725433  28.4152753   9.2501673
  70.5415433  29.7192753   9.6681673  70.7795433  28.9732753   9.7071673
  69.0095433  20.2552753   3.6551673  69.0535433  20.5992753   2.8541673
  69.7645433  20.4922753   4.0221673  69.1275433  20.3412753   3.5911673
  75.6325433  30.7442753   6.4291673  75.3345433  31.3362753   6.9961673
  75.6875433  31.1862753   5.6801673  75.5965433  30.8972753   6.4021673
  73.6115433  29.6942753   9.8271673  72.8055433  29.4042753   9.9941673
  73.5225433  30.5622753   9.8331673  73.4795433  29.7792753   9.8521673
  74.8585433  22.7702753   8.6611673  75.0195433  22.0262753   9.0881673
  74.8135433  22.5212753   7.8261673  74.8755433  22.6232753   8.6011673
  76.6105433  18.5782753   8.5411673  77.3155433  18.8982753   8.1391673
  76.8515433  17.7712753   8.7681673  76.7495433  18.5062753   8.5151673
  75.5955433  32.7882753   4.5371673  74.9715433  33.3702753   4.3551673
  75.8435433  32.5022753   3.7511673  75.5395433  32.8322753   4.3941673
  73.1195433  23.6312753   4.6021673  73.5595433  23.5282753   3.8561673
  73.6645433  23.3182753   5.2071673  73.2645433  23.5702753   4.5811673
  76.6665433  18.6162753   4.6491673  75.8405433  18.4672753   4.8861673
  76.6265433  18.6512753   3.7781673  76.5385433  18.5992753   4.5551673
  78.3075433  29.6562753   9.4371673  77.5125433  29.5922753   9.7881673
  78.3785433  30.5032753   9.2421673  78.2005433  29.7712753   9.4601673
  69.2315433  19.0142753  10.6841673  69.0915433  19.8092753  10.3531673
  68.4455433  18.7712753  10.9731673  69.0945433  19.0962753  10.6781673
  74.1375433  35.8632753   4.7541673  74.1485433  35.9222753   5.6241673
  73.7125433  35.1162753   4.6041673  74.0765433  35.7612753   4.8601673
  70.9015433  35.3612753  10.1961673  70.2475433  34.7922753  10.2941673
  70.5265433  36.1342753  10.3471673  70.7495433  35.3912753  10.2331673
  72.2725433  23.7692753   8.3251673  72.6475433  24.3882753   7.8381673
  72.9465433  23.2952753   8.6101673  72.4275433  23.7912753   8.2951673
  70.0475433  22.2172753   7.6001673  70.1245433  22.0482753   6.7471673
  70.7935433  22.6232753   7.7971673  70.1685433  22.2522753   7.5031673
  72.6015433  19.6272753  10.0111673  72.5205433  18.7832753  10.2171673
  72.2875433  19.6712753   9.1981673  72.5435433  19.5092753   9.9211673
  69.4445433  27.4432753   7.8241673  69.7645433  27.6622753   7.0431673
  69.3445433  26.5782753   7.7691673  69.4765433  27.3482753   7.7011673
  74.2075433  26.7352753   9.2091673  73.8115433  27.5092753   9.2841673
  73.8015433  26.3622753   8.5331673  74.0895433  26.7942753   9.1201673
  74.6365433  19.7122753   6.6591673  73.7725433  19.7962753   6.7391673
  74.8565433  19.1982753   7.3281673  74.5415433  19.6492753   6.7701673
  76.2425433  24.7892753  10.2371673  75.9205433  24.2132753   9.6671673
  75.8835433  25.5442753   9.9911673  76.1425433  24.8152753  10.1171673
  74.6775433  35.1452753  10.4851673  74.7185433  35.2712753  11.3481673
  75.3285433  34.5852753  10.3291673  74.7795433  35.0812753  10.5901673
  71.8565433  19.7952753   7.3071673  71.5135433  19.0282753   7.0731673
  71.1615433  20.3192753   7.3711673  71.7035433  19.7592753   7.2821673
  72.2705433  33.5282753  11.8451673  72.8655433  33.9592753  12.3171673
  71.9065433  34.1522753  11.3561673  72.3045433  33.6842753  11.8421673
  70.1975433  31.5172753   8.7741673  69.6235433  31.9332753   9.2831673
  70.9305433  31.9822753   8.8691673  70.2215433  31.6472753   8.8631673
  75.2895433  20.1562753  10.3931673  75.5235433  19.5802753   9.7801673
  74.4475433  19.9752753  10.5341673  75.1995433  20.0442753  10.3231673
  72.6705433  33.5992753   4.0261673  72.5915433  32.7892753   3.7101673
  72.2265433  34.0862753   3.4541673  72.5935433  33.5512753   3.8951673
  70.2425433  35.8432753   7.6071673  70.7355433  35.7872753   8.3251673
  70.4305433  35.1102753   7.1721673  70.3435433  35.7262753   7.6491673
  69.3585433  10.9371673  75.9061313  68.9175433  11.0551673  76.6491313
  69.0755433  10.1621673  75.6211313  69.2515433  10.8401673  75.9741313
  69.1015433   4.7291673  72.4131313  68.3235433   4.8911673  72.0531313
  69.1405433   3.8581673  72.4351313  68.9925433   4.6241673  72.3631313
  72.2405433   9.9921673  71.0851313  71.8485433   9.6211673  70.3991313
  72.1605433   9.3941673  71.7141313  72.1705433   9.8491673  71.0761313
  71.8675433  11.6331673  74.9851313  72.4755433  11.4631673  75.5881313
  71.1165433  11.4931673  75.4061313  71.8465433  11.5871673  75.1361313
  70.7585433  14.7241673  71.0621313  71.2255433  14.8081673  70.3301313
  71.2135433  14.1461673  71.5311313  70.8945433  14.6511673  71.0231313
  70.7445433   8.1931673  76.3631313  70.2825433   7.8011673  75.7361313
  71.4445433   7.6801673  76.4551313  70.7795433   8.0601673  76.2841313
  72.7455433   6.2931673  76.3861313  73.5625433   6.1061673  76.6291313
  72.2685433   5.6791673  76.7821313  72.7955433   6.1751673  76.4811313
  76.9495433  12.2741673  78.9961313  77.2975433  11.4751673  79.0261313
  77.6145433  12.7781673  78.7411313  77.0995433  12.2301673  78.9631313
  77.0065433  11.7231673  75.2071313  77.3375433  11.0791673  75.6931313
  77.2465433  11.5121673  74.3961313  77.0905433  11.5971673  75.1591313
  69.2005433   5.9541673  79.3761313  68.9445433   6.7851673  79.3011313
  68.5365433   5.5711673  79.7931313  69.0645433   6.0201673  79.4271313
  69.1105433  15.6641673  77.2761313  68.5185433  16.2221673  76.9631313
  69.5365433  15.3951673  76.5641313  69.0865433  15.7061673  77.1251313
  74.9505433  13.5081673  74.7561313  74.3715433  13.2331673  75.3481313
  75.5745433  12.8991673  74.7811313  74.9575433  13.3781673  74.8471313
  70.6555433  14.3341673  75.2071313  71.3115433  13.7591673  75.2221313
  71.0445433  15.0831673  74.9861313  70.8105433  14.3591673  75.1771313
  71.4735433  12.8211673  78.7071313  71.8965433  12.4651673  78.0331313
  71.7975433  12.3991673  79.3991313  71.5835433  12.7061673  78.7101313
  74.7045433  15.6731673  78.0031313  75.5485433  15.7771673  77.8081313
  74.4075433  16.4911673  78.0711313  74.7855433  15.8091673  77.9841313
  69.5535433   2.6441673  74.6501313  69.4395433   1.7801673  74.6811313
  69.0785433   2.9381673  75.3201313  69.4665433   2.5601673  74.7531313
  77.4555433   3.1601673  77.8081313  77.5295433   3.7281673  77.1501313
  77.5765433   3.6521673  78.5181313  77.4835433   3.3171673  77.8161313
  75.0195433   9.4161673  80.1811313  75.1915433   9.2061673  81.0101313
  74.3645433   8.8821673  79.9651313  74.9485433   9.3061673  80.2721313
  72.5115433   2.7931673  77.8101313  72.7835433   2.3631673  77.1021313
  72.3355433   2.1571673  78.3811313  72.5255433   2.6361673  77.7901313
  72.3355433  10.2201673  77.3591313  73.1865433  10.1401673  77.1861313
  71.9785433   9.5381673  76.9471313  72.4085433  10.1071673  77.2721313
  71.1025433  16.9451673  78.5961313  70.4295433  16.4471673  78.3511313
  71.5055433  17.1301673  77.8451313  71.0625433  16.8991673  78.4491313
  70.6525433   3.8951673  80.8921313  71.4955433   4.1151673  80.8491313
  70.2635433   4.4681673  80.3611313  70.7195433   4.0121673  80.8071313
  74.7035433  10.2271673  75.5941313  75.4165433  10.7221673  75.6841313
  74.9255433   9.6601673  74.9681313  74.8415433  10.2161673  75.5151313
  68.8595433  11.8701673  78.9141313  68.1925433  12.3581673  79.1901313
  69.5395433  12.4151673  78.9431313  68.8615433  12.0221673  78.9591313
  68.9255433   8.5541673  74.0171313  68.7405433   7.7151673  74.1691313
  69.5845433   8.5181673  73.4471313  68.9955433   8.4251673  73.9551313
  69.0975433  12.7181673  73.5921313  69.6495433  13.2871673  73.9561313
  68.8655433  12.2031673  74.2571313  69.1445433  12.7261673  73.7441313
  73.3015433  11.7181673  80.6811313  73.7685433  12.0071673  81.3591313
  73.8735433  11.2401673  80.2271313  73.4555433  11.6901673  80.7141313
  68.9275433  11.1671673  71.2201313  69.6835433  10.7351673  71.2781313
  68.9425433  11.6991673  71.9111313  69.0415433  11.1821673  71.3311313
  69.8675433   9.3881673  79.2251313  70.2985433   9.2591673  78.4781313
  69.6625433  10.2361673  79.1991313  69.9005433   9.4941673  79.1111313
  76.2135433   2.9521673  72.8751313  76.2115433   2.8351673  72.0101313
  76.0325433   3.8001673  72.9671313  76.1865433   3.0601673  72.7611313
  73.9515433  12.9041673  77.5071313  74.0775433  13.7471673  77.6941313
  74.6195433  12.5051673  77.9031313  74.0695433  12.9701673  77.5931313
  72.5665433   5.7841673  72.5091313  72.4385433   5.3361673  73.2471313
  71.9845433   5.4421673  71.9571313  72.4615433   5.6671673  72.5371313
  72.7335433   7.6141673  79.1081313  71.9525433   7.5551673  78.7251313
  72.8055433   6.8621673  79.5451313  72.6285433   7.4951673  79.1161313
  77.8335433   4.5031673  80.2081313  78.3135433   5.2021673  80.4161313
  78.2065433   3.8561673  80.6591313  77.9595433   4.5111673  80.3051313
  74.9445433  16.2711673  74.1551313  74.7975433  15.4951673  74.5261313
  75.6335433  16.1241673  73.6401313  75.0245433  16.1341673  74.1341313
  77.2365433  15.7871673  72.5571313  77.8585433  15.9501673  73.1471313
  77.2725433  16.4781673  72.0251313  77.3335433  15.9131673  72.5661313
  71.7375433   8.3211673  73.3861313  72.0615433   7.5421673  73.1641313
  72.3835433   8.6891673  73.8411313  71.8805433   8.2601673  73.4201313
  78.4275433   7.6631673  74.8111313  78.4865433   8.3131673  75.3901313
  78.2385433   6.9671673  75.3021313  78.4085433   7.6561673  74.9691313
  72.9235433   2.1801673  71.3231313  72.4125433   2.2331673  70.6171313
  73.7075433   2.4201673  71.0271313  72.9635433   2.2231673  71.1751313
  77.6505433   9.7101673  79.2421313  76.8035433   9.5161673  79.3231313
  77.9745433   9.5451673  80.0351313  77.5725433   9.6571673  79.3711313
  74.4025433  16.4401673  70.1281313  74.8415433  15.7431673  70.4161313
  74.6095433  17.0641673  70.7011313  74.4985433  16.4291673  70.2551313
  71.4985433   9.4031673  81.5581313  72.2205433   9.8911673  81.5211313
  71.2285433   9.3731673  80.7291313  71.5655433   9.4711673  81.4301313
  74.7285433   4.5741673  78.2931313  75.5745433   4.3841673  78.3911313
  74.3585433   3.7971673  78.1551313  74.7985433   4.4311673  78.2871313
  69.5495433   5.9121673  74.9481313  70.0385433   5.6201673  75.6091313
  69.6785433   5.3191673  74.3211313  69.6405433   5.7811673  74.9531313
  74.0745433   7.3461673  70.4341313  73.4645433   6.9411673  70.9081313
  73.6885433   7.4641673  69.6611313  73.9275433   7.3031673  70.3901313
  75.5295433   5.8071673  73.1441313  75.8015433   6.6331673  73.2111313
  74.6665433   5.8821673  73.0481313  75.4425433   5.9401673  73.1391313
  69.0095433   1.7771673  79.6801313  69.0535433   2.1211673  78.8791313
  69.7645433   2.0141673  80.0471313  69.1275433   1.8631673  79.6161313
  77.4125433  16.0821673  77.1731313  77.9585433  16.7611673  77.2271313
  77.0625433  16.1641673  76.3781313  77.4415433  16.1951673  77.0631313
  75.5955433  14.3101673  80.5621313  74.9715433  14.8921673  80.3801313
  75.8435433  14.0241673  79.7761313  75.5395433  14.3541673  80.4191313
  77.1895433   9.0861673  70.4771313  76.3845433   8.9091673  70.1921313
  77.1565433   9.9371673  70.6691313  77.0655433   9.1851673  70.4641313
  73.1195433   5.1531673  80.6271313  73.5595433   5.0501673  79.8811313
  73.6645433   4.8401673  81.2321313  73.2645433   5.0921673  80.6061313
  72.2955433   3.2801673  73.9341313  72.4215433   2.9511673  73.1361313
  71.4835433   3.0311673  74.1331313  72.1945433   3.1951673  73.8461313
  70.9005433   4.9011673  70.4671313  70.2285433   4.9151673  71.0231313
  70.9955433   4.0531673  70.2831313  70.8155433   4.7781673  70.5221313
  74.8885433  13.6061673  71.5811313  75.3295433  13.6861673  72.3291313
  74.0835433  13.3901673  71.8391313  74.8345433  13.5861673  71.7301313
  72.2175433  12.6761673  72.1821313  71.9735433  12.3691673  72.9621313
  72.1845433  11.9731673  71.6661313  72.1765433  12.5271673  72.2211313
  75.0365433  10.9211673  70.9251313  74.2185433  10.6531673  71.0651313
  75.0085433  11.7731673  71.1101313  74.9115433  11.0081673  70.9731313
  70.5095433   4.6311673  77.2881313  70.1415433   4.9331673  78.0191313
  71.0435433   4.0021673  77.5721313  70.5335433   4.5831673  77.4381313
  71.9835433  16.3061673  73.5741313  71.8385433  16.4621673  72.7281313
  72.8495433  16.3851673  73.6521313  72.0905433  16.3411673  73.4611313
  76.1505433   8.7031673  73.3021313  76.2505433   8.8421673  72.4471313
  76.9685433   8.6431673  73.5981313  76.2855433   8.7141673  73.2191313
  72.6705433  15.1211673  80.0511313  72.5915433  14.3111673  79.7351313
  72.2265433  15.6081673  79.4791313  72.5935433  15.0731673  79.9201313
  69.3585433  10.9371673  56.8998903  68.9175433  11.0551673  57.6428903
  69.0755433  10.1621673  56.6148903  69.2515433  10.8401673  56.9678903
  69.1015433   4.7291673  53.4068903  68.3235433   4.8911673  53.0468903
  69.1405433   3.8581673  53.4288903  68.9925433   4.6241673  53.3568903
  72.2405433   9.9921673  52.0788903  71.8485433   9.6211673  51.3928903
  72.1605433   9.3941673  52.7078903  72.1705433   9.8491673  52.0698903
  71.8675433  11.6331673  55.9788903  72.4755433  11.4631673  56.5818903
  71.1165433  11.4931673  56.3998903  71.8465433  11.5871673  56.1298903
  70.7585433  14.7241673  52.0558903  71.2255433  14.8081673  51.3238903
  71.2135433  14.1461673  52.5248903  70.8945433  14.6511673  52.0168903
  69.2985433  13.6721673  63.1548903  69.4275433  13.3921673  63.9708903
  68.6885433  13.1311673  62.8458903  69.2275433  13.5511673  63.2298903
  75.8725433  11.1971673  68.2218903  75.6365433  11.1941673  69.0618903
  75.1245433  11.0491673  67.7978903  75.7265433  11.1741673  68.2828903
  70.7445433   8.1931673  57.3568903  70.2825433   7.8011673  56.7298903
  71.4445433   7.6801673  57.4488903  70.7795433   8.0601673  57.2778903
  75.2525433   3.8031673  62.7038903  75.9305433   3.8211673  62.1548903
  75.2075433   2.9671673  62.9488903  75.3455433   3.6821673  62.6588903
  75.8545433  14.3891673  65.4848903  75.9925433  15.1491673  65.0778903
  76.6455433  14.0241673  65.5118903  75.9915433  14.4481673  65.4288903
  72.7455433   6.2931673  57.3798903  73.5625433   6.1061673  57.6228903
  72.2685433   5.6791673  57.7758903  72.7955433   6.1751673  57.4748903
  76.9495433  12.2741673  59.9898903  77.2975433  11.4751673  60.0198903
  77.6145433  12.7781673  59.7348903  77.0995433  12.2301673  59.9568903
  77.0065433  11.7231673  56.2008903  77.3375433  11.0791673  56.6868903
  77.2465433  11.5121673  55.3898903  77.0905433  11.5971673  56.1528903
  69.2005433   5.9541673  60.3698903  68.9445433   6.7851673  60.2948903
  68.5365433   5.5711673  60.7868903  69.0645433   6.0201673  60.4208903
  69.1105433  15.6641673  58.2698903  68.5185433  16.2221673  57.9568903
  69.5365433  15.3951673  57.5578903  69.0865433  15.7061673  58.1188903
  74.9505433  13.5081673  55.7498903  74.3715433  13.2331673  56.3418903
  75.5745433  12.8991673  55.7748903  74.9575433  13.3781673  55.8408903
  75.5355433   2.9041673  70.1588903  75.6525433   2.4501673  69.4228903
  75.8235433   3.7021673  69.9558903  75.5955433   2.9551673  70.0198903
  70.6555433  14.3341673  56.2008903  71.3115433  13.7591673  56.2158903
  71.0445433  15.0831673  55.9798903  70.8105433  14.3591673  56.1708903
  71.2685433   2.5011673  69.1428903  70.4905433   2.1111673  69.0708903
  71.7595433   2.0891673  68.5518903  71.2255433   2.3821673  69.0448903
  71.4735433  12.8211673  59.7008903  71.8965433  12.4651673  59.0268903
  71.7975433  12.3991673  60.3928903  71.5835433  12.7061673  59.7038903
  74.7045433  15.6731673  58.9968903  75.5485433  15.7771673  58.8018903
  74.4075433  16.4911673  59.0648903  74.7855433  15.8091673  58.9778903
  73.7025433  16.8921673  64.7368903  73.9945433  16.8251673  65.5568903
  73.0765433  16.2871673  64.6918903  73.6535433  16.7931673  64.8518903
  68.6165433   3.0491673  66.7288903  68.6125433   3.6361673  67.3748903
  69.2105433   3.3611673  66.1718903  68.7035433   3.1821673  66.7418903
  69.5535433   2.6441673  55.6438903  69.4395433   1.7801673  55.6748903
  69.0785433   2.9381673  56.3138903  69.4665433   2.5601673  55.7468903
  71.6955433  15.0541673  63.8588903  70.9975433  14.5461673  63.9848903
  71.9555433  14.8491673  63.0508903  71.6305433  14.9491673  63.7578903
  77.4555433   3.1601673  58.8018903  77.5295433   3.7281673  58.1438903
  77.5765433   3.6521673  59.5118903  77.4835433   3.3171673  58.8098903
  73.0565433  13.9051673  66.4258903  73.8975433  13.9681673  66.2038903
  73.0195433  14.3021673  67.2018903  73.1755433  13.9731673  66.5078903
  75.0195433   9.4161673  61.1748903  75.1915433   9.2061673  62.0038903
  74.3645433   8.8821673  60.9588903  74.9485433   9.3061673  61.2658903
  75.7695433   9.3541673  63.7648903  75.8225433  10.2011673  63.9668903
  75.4845433   8.9841673  64.5018903  75.7355433   9.4241673  63.9028903
  68.5905433  13.7251673  69.9758903  69.3465433  14.0741673  70.2338903
  68.7675433  12.8721673  69.9188903  68.7285433  13.6501673  70.0058903
  72.5115433   2.7931673  58.8038903  72.7835433   2.3631673  58.0958903
  72.3355433   2.1571673  59.3748903  72.5255433   2.6361673  58.7838903
  72.3355433  10.2201673  58.3528903  73.1865433  10.1401673  58.1798903
  71.9785433   9.5381673  57.9408903  72.4085433  10.1071673  58.2658903
  71.1025433  16.9451673  59.5898903  70.4295433  16.4471673  59.3448903
  71.5055433  17.1301673  58.8388903  71.0625433  16.8991673  59.4428903
  70.6525433   3.8951673  61.8858903  71.4955433   4.1151673  61.8428903
  70.2635433   4.4681673  61.3548903  70.7195433   4.0121673  61.8008903
  74.7035433  10.2271673  56.5878903  75.4165433  10.7221673  56.6778903
  74.9255433   9.6601673  55.9618903  74.8415433  10.2161673  56.5088903
  68.8595433  11.8701673  59.9078903  68.1925433  12.3581673  60.1838903
  69.5395433  12.4151673  59.9368903  68.8615433  12.0221673  59.9528903
  76.5065433   5.5801673  70.0038903  76.0225433   6.1571673  70.4458903
  76.4785433   5.8751673  69.1828903  76.4305433   5.7091673  69.9478903
  68.9255433   8.5541673  55.0108903  68.7405433   7.7151673  55.1628903
  69.5845433   8.5181673  54.4408903  68.9955433   8.4251673  54.9488903
  69.0975433  12.7181673  54.5858903  69.6495433  13.2871673  54.9498903
  68.8655433  12.2031673  55.2508903  69.1445433  12.7261673  54.7378903
  73.3015433  11.7181673  61.6748903  73.7685433  12.0071673  62.3528903
  73.8735433  11.2401673  61.2208903  73.4555433  11.6901673  61.7078903
  68.9275433  11.1671673  52.2138903  69.6835433  10.7351673  52.2718903
  68.9425433  11.6991673  52.9048903  69.0415433  11.1821673  52.3248903
  69.8675433   9.3881673  60.2188903  70.2985433   9.2591673  59.4718903
  69.6625433  10.2361673  60.1928903  69.9005433   9.4941673  60.1048903
  76.2135433   2.9521673  53.8688903  76.2115433   2.8351673  53.0038903
  76.0325433   3.8001673  53.9608903  76.1865433   3.0601673  53.7548903
  73.9515433  12.9041673  58.5008903  74.0775433  13.7471673  58.6878903
  74.6195433  12.5051673  58.8968903  74.0695433  12.9701673  58.5868903
  72.0815433   6.3871673  68.3628903  71.5455433   5.8811673  68.8308903
  72.1015433   5.9971673  67.5828903  72.0045433   6.2541673  68.3168903
  72.5665433   5.7841673  53.5028903  72.4385433   5.3361673  54.2408903
  71.9845433   5.4421673  52.9508903  72.4615433   5.6671673  53.5308903
  72.7335433   7.6141673  60.1018903  71.9525433   7.5551673  59.7188903
  72.8055433   6.8621673  60.5388903  72.6285433   7.4951673  60.1098903
  73.1635433   7.3511673  63.5698903  73.1885433   6.6761673  63.0188903
  72.5175433   7.8471673  63.2578903  73.0725433   7.3241673  63.4428903
  77.2635433  16.1281673  62.9618903  76.9865433  15.4871673  62.4388903
  77.0555433  16.8541673  62.5238903  77.1925433  16.1411673  62.8198903
  70.9625433   8.7061673  69.1288903  70.9255433   9.2071673  68.4148903
  71.2935433   7.9541673  68.8338903  71.0055433   8.6681673  68.9798903
  76.8615433  13.7561673  68.5638903  77.2155433  13.5781673  69.3408903
  76.4255433  13.0271673  68.3648903  76.8495433  13.6221673  68.6498903
  77.8335433   4.5031673  61.2018903  78.3135433   5.2021673  61.4098903
  78.2065433   3.8561673  61.6528903  77.9595433   4.5111673  61.2988903
  74.9445433  16.2711673  55.1488903  74.7975433  15.4951673  55.5198903
  75.6335433  16.1241673  54.6338903  75.0245433  16.1341673  55.1278903
  77.2365433  15.7871673  53.5508903  77.8585433  15.9501673  54.1408903
  77.2725433  16.4781673  53.0188903  77.3335433  15.9131673  53.5598903
  71.7375433   8.3211673  54.3798903  72.0615433   7.5421673  54.1578903
  72.3835433   8.6891673  54.8348903  71.8805433   8.2601673  54.4138903
  78.4275433   7.6631673  55.8048903  78.4865433   8.3131673  56.3838903
  78.2385433   6.9671673  56.2958903  78.4085433   7.6561673  55.9628903
  72.9235433   2.1801673  52.3168903  72.4125433   2.2331673  51.6108903
  73.7075433   2.4201673  52.0208903  72.9635433   2.2231673  52.1688903
  77.6505433   9.7101673  60.2358903  76.8035433   9.5161673  60.3168903
  77.9745433   9.5451673  61.0288903  77.5725433   9.6571673  60.3648903
  74.4025433  16.4401673  51.1218903  74.8415433  15.7431673  51.4098903
  74.6095433  17.0641673  51.6948903  74.4985433  16.4291673  51.2488903
  71.4985433   9.4031673  62.5518903  72.2205433   9.8911673  62.5148903
  71.2285433   9.3731673  61.7228903  71.5655433   9.4711673  62.4238903
  74.7285433   4.5741673  59.2868903  75.5745433   4.3841673  59.3848903
  74.3585433   3.7971673  59.1488903  74.7985433   4.4311673  59.2808903
  69.5495433   5.9121673  55.9418903  70.0385433   5.6201673  56.6028903
  69.6785433   5.3191673  55.3148903  69.6405433   5.7811673  55.9468903
  74.0745433   7.3461673  51.4278903  73.4645433   6.9411673  51.9018903
  73.6885433   7.4641673  50.6548903  73.9275433   7.3031673  51.3838903
  70.8935433  10.4551673  66.8298903  70.4725433   9.9371673  66.2688903
  70.5415433  11.2411673  66.6868903  70.7795433  10.4951673  66.7258903
  75.5295433   5.8071673  54.1378903  75.8015433   6.6331673  54.2048903
  74.6665433   5.8821673  54.0418903  75.4425433   5.9401673  54.1328903
  69.0095433   1.7771673  60.6738903  69.0535433   2.1211673  59.8728903
  69.7645433   2.0141673  61.0408903  69.1275433   1.8631673  60.6098903
  75.6325433  12.2661673  63.4478903  75.3345433  12.8581673  64.0148903
  75.6875433  12.7081673  62.6988903  75.5965433  12.4191673  63.4208903
  73.6115433  11.2161673  66.8458903  72.8055433  10.9261673  67.0128903
  73.5225433  12.0841673  66.8518903  73.4795433  11.3011673  66.8708903
  74.8585433   4.2921673  65.6798903  75.0195433   3.5481673  66.1068903
  74.8135433   4.0431673  64.8448903  74.8755433   4.1451673  65.6198903
  77.4125433  16.0821673  58.1668903  77.9585433  16.7611673  58.2208903
  77.0625433  16.1641673  57.3718903  77.4415433  16.1951673  58.0568903
  75.5955433  14.3101673  61.5558903  74.9715433  14.8921673  61.3738903
  75.8435433  14.0241673  60.7698903  75.5395433  14.3541673  61.4128903
  77.1895433   9.0861673  51.4708903  76.3845433   8.9091673  51.1858903
  77.1565433   9.9371673  51.6628903  77.0655433   9.1851673  51.4578903
  73.1195433   5.1531673  61.6208903  73.5595433   5.0501673  60.8748903
  73.6645433   4.8401673  62.2258903  73.2645433   5.0921673  61.5998903
  78.3075433  11.1781673  66.4558903  77.5125433  11.1141673  66.8068903
  78.3785433  12.0251673  66.2608903  78.2005433  11.2931673  66.4788903
  74.1375433  17.3851673  61.7728903  74.1485433  17.4441673  62.6428903
  73.7125433  16.6381673  61.6228903  74.0765433  17.2831673  61.8788903
  72.2955433   3.2801673  54.9278903  72.4215433   2.9511673  54.1298903
  71.4835433   3.0311673  55.1268903  72.1945433   3.1951673  54.8398903
  70.9015433  16.8831673  67.2148903  70.2475433  16.3141673  67.3128903
  70.5265433  17.6561673  67.3658903  70.7495433  16.9131673  67.2518903
  72.2725433   5.2911673  65.3438903  72.6475433   5.9101673  64.8568903
  72.9465433   4.8171673  65.6288903  72.4275433   5.3131673  65.3138903
  70.0475433   3.7391673  64.6188903  70.1245433   3.5701673  63.7658903
  70.7935433   4.1451673  64.8158903  70.1685433   3.7741673  64.5218903
  69.4445433   8.9651673  64.8428903  69.7645433   9.1841673  64.0618903
  69.3445433   8.1001673  64.7878903  69.4765433   8.8701673  64.7198903
  70.9005433   4.9011673  51.4608903  70.2285433   4.9151673  52.0168903
  70.9955433   4.0531673  51.2768903  70.8155433   4.7781673  51.5158903
  74.8885433  13.6061673  52.5748903  75.3295433  13.6861673  53.3228903
  74.0835433  13.3901673  52.8328903  74.8345433  13.5861673  52.7238903
  74.2075433   8.2571673  66.2278903  73.8115433   9.0311673  66.3028903
  73.8015433   7.8841673  65.5518903  74.0895433   8.3161673  66.1388903
  72.2175433  12.6761673  53.1758903  71.9735433  12.3691673  53.9558903
  72.1845433  11.9731673  52.6598903  72.1765433  12.5271673  53.2148903
  75.0365433  10.9211673  51.9188903  74.2185433  10.6531673  52.0588903
  75.0085433  11.7731673  52.1038903  74.9115433  11.0081673  51.9668903
  76.2425433   6.3111673  67.2558903  75.9205433   5.7351673  66.6858903
  75.8835433   7.0661673  67.0098903  76.1425433   6.3371673  67.1358903
  74.6775433  16.6671673  67.5038903  74.7185433  16.7931673  68.3668903
  75.3285433  16.1071673  67.3478903  74.7795433  16.6031673  67.6088903
  72.2705433  15.0501673  68.8638903  72.8655433  15.4811673  69.3358903
  71.9065433  15.6741673  68.3748903  72.3045433  15.2061673  68.8608903
  70.5095433   4.6311673  58.2818903  70.1415433   4.9331673  59.0128903
  71.0435433   4.0021673  58.5658903  70.5335433   4.5831673  58.4318903
  70.1975433  13.0391673  65.7928903  69.6235433  13.4551673  66.3018903
  70.9305433  13.5041673  65.8878903  70.2215433  13.1691673  65.8818903
  71.9835433  16.3061673  54.5678903  71.8385433  16.4621673  53.7218903
  72.8495433  16.3851673  54.6458903  72.0905433  16.3411673  54.4548903
  76.1505433   8.7031673  54.2958903  76.2505433   8.8421673  53.4408903
  76.9685433   8.6431673  54.5918903  76.2855433   8.7141673  54.2128903
  72.6705433  15.1211673  61.0448903  72.5915433  14.3111673  60.7288903
  72.2265433  15.6081673  60.4728903  72.5935433  15.0731673  60.9138903
  70.2425433  17.3651673  64.6258903  70.7355433  17.3091673  65.3438903
  70.4305433  16.6321673  64.1908903  70.3435433  17.2481673  64.6678903
  69.3585433  10.9371673  37.8936493  68.9175433  11.0551673  38.6366493
  69.0755433  10.1621673  37.6086493  69.2515433  10.8401673  37.9616493
  69.1015433   4.7291673  34.4006493  68.3235433   4.8911673  34.0406493
  69.1405433   3.8581673  34.4226493  68.9925433   4.6241673  34.3506493
  72.2405433   9.9921673  33.0726493  71.8485433   9.6211673  32.3866493
  72.1605433   9.3941673  33.7016493  72.1705433   9.8491673  33.0636493
  71.8675433  11.6331673  36.9726493  72.4755433  11.4631673  37.5756493
  71.1165433  11.4931673  37.3936493  71.8465433  11.5871673  37.1236493
  70.7585433  14.7241673  33.0496493  71.2255433  14.8081673  32.3176493
  71.2135433  14.1461673  33.5186493  70.8945433  14.6511673  33.0106493
  69.2985433  13.6721673  44.1486493  69.4275433  13.3921673  44.9646493
  68.6885433  13.1311673  43.8396493  69.2275433  13.5511673  44.2236493
  75.8725433  11.1971673  49.2156493  75.6365433  11.1941673  50.0556493
  75.1245433  11.0491673  48.7916493  75.7265433  11.1741673  49.2766493
  70.7445433   8.1931673  38.3506493  70.2825433   7.8011673  37.7236493
  71.4445433   7.6801673  38.4426493  70.7795433   8.0601673  38.2716493
  75.2525433   3.8031673  43.6976493  75.9305433   3.8211673  43.1486493
  75.2075433   2.9671673  43.9426493  75.3455433   3.6821673  43.6526493
  75.8545433  14.3891673  46.4786493  75.9925433  15.1491673  46.0716493
  76.6455433  14.0241673  46.5056493  75.9915433  14.4481673  46.4226493
  72.7455433   6.2931673  38.3736493  73.5625433   6.1061673  38.6166493
  72.2685433   5.6791673  38.7696493  72.7955433   6.1751673  38.4686493
  76.9495433  12.2741673  40.9836493  77.2975433  11.4751673  41.0136493
  77.6145433  12.7781673  40.7286493  77.0995433  12.2301673  40.9506493
  77.0065433  11.7231673  37.1946493  77.3375433  11.0791673  37.6806493
  77.2465433  11.5121673  36.3836493  77.0905433  11.5971673  37.1466493
  69.2005433   5.9541673  41.3636493  68.9445433   6.7851673  41.2886493
  68.5365433   5.5711673  41.7806493  69.0645433   6.0201673  41.4146493
  69.1105433  15.6641673  39.2636493  68.5185433  16.2221673  38.9506493
  69.5365433  15.3951673  38.5516493  69.0865433  15.7061673  39.1126493
  74.9505433  13.5081673  36.7436493  74.3715433  13.2331673  37.3356493
  75.5745433  12.8991673  36.7686493  74.9575433  13.3781673  36.8346493
  75.5355433   2.9041673  51.1526493  75.6525433   2.4501673  50.4166493
  75.8235433   3.7021673  50.9496493  75.5955433   2.9551673  51.0136493
  70.6555433  14.3341673  37.1946493  71.3115433  13.7591673  37.2096493
  71.0445433  15.0831673  36.9736493  70.8105433  14.3591673  37.1646493
  71.2685433   2.5011673  50.1366493  70.4905433   2.1111673  50.0646493
  71.7595433   2.0891673  49.5456493  71.2255433   2.3821673  50.0386493
  71.4735433  12.8211673  40.6946493  71.8965433  12.4651673  40.0206493
  71.7975433  12.3991673  41.3866493  71.5835433  12.7061673  40.6976493
  74.7045433  15.6731673  39.9906493  75.5485433  15.7771673  39.7956493
  74.4075433  16.4911673  40.0586493  74.7855433  15.8091673  39.9716493
  73.7025433  16.8921673  45.7306493  73.9945433  16.8251673  46.5506493
  73.0765433  16.2871673  45.6856493  73.6535433  16.7931673  45.8456493
  68.6165433   3.0491673  47.7226493  68.6125433   3.6361673  48.3686493
  69.2105433   3.3611673  47.1656493  68.7035433   3.1821673  47.7356493
  69.5535433   2.6441673  36.6376493  69.4395433   1.7801673  36.6686493
  69.0785433   2.9381673  37.3076493  69.4665433   2.5601673  36.7406493
  71.6955433  15.0541673  44.8526493  70.9975433  14.5461673  44.9786493
  71.9555433  14.8491673  44.0446493  71.6305433  14.9491673  44.7516493
  77.4555433   3.1601673  39.7956493  77.5295433   3.7281673  39.1376493
  77.5765433   3.6521673  40.5056493  77.4835433   3.3171673  39.8036493
  73.0565433  13.9051673  47.4196493  73.8975433  13.9681673  47.1976493
  73.0195433  14.3021673  48.1956493  73.1755433  13.9731673  47.5016493
  75.0195433   9.4161673  42.1686493  75.1915433   9.2061673  42.9976493
  74.3645433   8.8821673  41.9526493  74.9485433   9.3061673  42.2596493
  75.7695433   9.3541673  44.7586493  75.8225433  10.2011673  44.9606493
  75.4845433   8.9841673  45.4956493  75.7355433   9.4241673  44.8966493
  68.5905433  13.7251673  50.9696493  69.3465433  14.0741673  51.2276493
  68.7675433  12.8721673  50.9126493  68.7285433  13.6501673  50.9996493
  72.5115433   2.7931673  39.7976493  72.7835433   2.3631673  39.0896493
  72.3355433   2.1571673  40.3686493  72.5255433   2.6361673  39.7776493
  72.3355433  10.2201673  39.3466493  73.1865433  10.1401673  39.1736493
  71.9785433   9.5381673  38.9346493  72.4085433  10.1071673  39.2596493
  71.1025433  16.9451673  40.5836493  70.4295433  16.4471673  40.3386493
  71.5055433  17.1301673  39.8326493  71.0625433  16.8991673  40.4366493
  70.6525433   3.8951673  42.8796493  71.4955433   4.1151673  42.8366493
  70.2635433   4.4681673  42.3486493  70.7195433   4.0121673  42.7946493
  74.7035433  10.2271673  37.5816493  75.4165433  10.7221673  37.6716493
  74.9255433   9.6601673  36.9556493  74.8415433  10.2161673  37.5026493
  68.8595433  11.8701673  40.9016493  68.1925433  12.3581673  41.1776493
  69.5395433  12.4151673  40.9306493  68.8615433  12.0221673  40.9466493
  76.5065433   5.5801673  50.9976493  76.0225433   6.1571673  51.4396493
  76.4785433   5.8751673  50.1766493  76.4305433   5.7091673  50.9416493
  68.9255433   8.5541673  36.0046493  68.7405433   7.7151673  36.1566493
  69.5845433   8.5181673  35.4346493  68.9955433   8.4251673  35.9426493
  69.0975433  12.7181673  35.5796493  69.6495433  13.2871673  35.9436493
  68.8655433  12.2031673  36.2446493  69.1445433  12.7261673  35.7316493
  73.3015433  11.7181673  42.6686493  73.7685433  12.0071673  43.3466493
  73.8735433  11.2401673  42.2146493  73.4555433  11.6901673  42.7016493
  68.9275433  11.1671673  33.2076493  69.6835433  10.7351673  33.2656493
  68.9425433  11.6991673  33.8986493  69.0415433  11.1821673  33.3186493
  69.8675433   9.3881673  41.2126493  70.2985433   9.2591673  40.4656493
  69.6625433  10.2361673  41.1866493  69.9005433   9.4941673  41.0986493
  76.2135433   2.9521673  34.8626493  76.2115433   2.8351673  33.9976493
  76.0325433   3.8001673  34.9546493  76.1865433   3.0601673  34.7486493
  73.9515433  12.9041673  39.4946493  74.0775433  13.7471673  39.6816493
  74.6195433  12.5051673  39.8906493  74.0695433  12.9701673  39.5806493
  72.0815433   6.3871673  49.3566493  71.5455433   5.8811673  49.8246493
  72.1015433   5.9971673  48.5766493  72.0045433   6.2541673  49.3106493
  72.5665433   5.7841673  34.4966493  72.4385433   5.3361673  35.2346493
  71.9845433   5.4421673  33.9446493  72.4615433   5.6671673  34.5246493
  72.7335433   7.6141673  41.0956493  71.9525433   7.5551673  40.7126493
  72.8055433   6.8621673  41.5326493  72.6285433   7.4951673  41.1036493
  73.1635433   7.3511673  44.5636493  73.1885433   6.6761673  44.0126493
  72.5175433   7.8471673  44.2516493  73.0725433   7.3241673  44.4366493
  77.2635433  16.1281673  43.9556493  76.9865433  15.4871673  43.4326493
  77.0555433  16.8541673  43.5176493  77.1925433  16.1411673  43.8136493
  70.9625433   8.7061673  50.1226493  70.9255433   9.2071673  49.4086493
  71.2935433   7.9541673  49.8276493  71.0055433   8.6681673  49.9736493
  76.8615433  13.7561673  49.5576493  77.2155433  13.5781673  50.3346493
  76.4255433  13.0271673  49.3586493  76.8495433  13.6221673  49.6436493
  77.8335433   4.5031673  42.1956493  78.3135433   5.2021673  42.4036493
  78.2065433   3.8561673  42.6466493  77.9595433   4.5111673  42.2926493
  74.9445433  16.2711673  36.1426493  74.7975433  15.4951673  36.5136493
  75.6335433  16.1241673  35.6276493  75.0245433  16.1341673  36.1216493
  77.2365433  15.7871673  34.5446493  77.8585433  15.9501673  35.1346493
  77.2725433  16.4781673  34.0126493  77.3335433  15.9131673  34.5536493
  71.7375433   8.3211673  35.3736493  72.0615433   7.5421673  35.1516493
  72.3835433   8.6891673  35.8286493  71.8805433   8.2601673  35.4076493
  78.4275433   7.6631673  36.7986493  78.4865433   8.3131673  37.3776493
  78.2385433   6.9671673  37.2896493  78.4085433   7.6561673  36.9566493
  72.9235433   2.1801673  33.3106493  72.4125433   2.2331673  32.6046493
  73.7075433   2.4201673  33.0146493  72.9635433   2.2231673  33.1626493
  77.6505433   9.7101673  41.2296493  76.8035433   9.5161673  41.3106493
  77.9745433   9.5451673  42.0226493  77.5725433   9.6571673  41.3586493
  74.4025433  16.4401673  32.1156493  74.8415433  15.7431673  32.4036493
  74.6095433  17.0641673  32.6886493  74.4985433  16.4291673  32.2426493
  71.4985433   9.4031673  43.5456493  72.2205433   9.8911673  43.5086493
  71.2285433   9.3731673  42.7166493  71.5655433   9.4711673  43.4176493
  74.7285433   4.5741673  40.2806493  75.5745433   4.3841673  40.3786493
  74.3585433   3.7971673  40.1426493  74.7985433   4.4311673  40.2746493
  69.5495433   5.9121673  36.9356493  70.0385433   5.6201673  37.5966493
  69.6785433   5.3191673  36.3086493  69.6405433   5.7811673  36.9406493
  74.0745433   7.3461673  32.4216493  73.4645433   6.9411673  32.8956493
  73.6885433   7.4641673  31.6486493  73.9275433   7.3031673  32.3776493
  70.8935433  10.4551673  47.8236493  70.4725433   9.9371673  47.2626493
  70.5415433  11.2411673  47.6806493  70.7795433  10.4951673  47.7196493
  75.5295433   5.8071673  35.1316493  75.8015433   6.6331673  35.1986493
  74.6665433   5.8821673  35.0356493  75.4425433   5.9401673  35.1266493
  69.0095433   1.7771673  41.6676493  69.0535433   2.1211673  40.8666493
  69.7645433   2.0141673  42.0346493  69.1275433   1.8631673  41.6036493
  75.6325433  12.2661673  44.4416493  75.3345433  12.8581673  45.0086493
  75.6875433  12.7081673  43.6926493  75.5965433  12.4191673  44.4146493
  73.6115433  11.2161673  47.8396493  72.8055433  10.9261673  48.0066493
  73.5225433  12.0841673  47.8456493  73.4795433  11.3011673  47.8646493
  74.8585433   4.2921673  46.6736493  75.0195433   3.5481673  47.1006493
  74.8135433   4.0431673  45.8386493  74.8755433   4.1451673  46.6136493
  77.4125433  16.0821673  39.1606493  77.9585433  16.7611673  39.2146493
  77.0625433  16.1641673  38.3656493  77.4415433  16.1951673  39.0506493
  75.5955433  14.3101673  42.5496493  74.9715433  14.8921673  42.3676493
  75.8435433  14.0241673  41.7636493  75.5395433  14.3541673  42.4066493
  77.1895433   9.0861673  32.4646493  76.3845433   8.9091673  32.1796493
  77.1565433   9.9371673  32.6566493  77.0655433   9.1851673  32.4516493
  73.1195433   5.1531673  42.6146493  73.5595433   5.0501673  41.8686493
  73.6645433   4.8401673  43.2196493  73.2645433   5.0921673  42.5936493
  78.3075433  11.1781673  47.4496493  77.5125433  11.1141673  47.8006493
  78.3785433  12.0251673  47.2546493  78.2005433  11.2931673  47.4726493
  74.1375433  17.3851673  42.7666493  74.1485433  17.4441673  43.6366493
  73.7125433  16.6381673  42.6166493  74.0765433  17.2831673  42.8726493
  72.2955433   3.2801673  35.9216493  72.4215433   2.9511673  35.1236493
  71.4835433   3.0311673  36.1206493  72.1945433   3.1951673  35.8336493
  70.9015433  16.8831673  48.2086493  70.2475433  16.3141673  48.3066493
  70.5265433  17.6561673  48.3596493  70.7495433  16.9131673  48.2456493
  72.2725433   5.2911673  46.3376493  72.6475433   5.9101673  45.8506493
  72.9465433   4.8171673  46.6226493  72.4275433   5.3131673  46.3076493
  70.0475433   3.7391673  45.6126493  70.1245433   3.5701673  44.7596493
  70.7935433   4.1451673  45.8096493  70.1685433   3.7741673  45.5156493
  69.4445433   8.9651673  45.8366493  69.7645433   9.1841673  45.0556493
  69.3445433   8.1001673  45.7816493  69.4765433   8.8701673  45.7136493
  70.9005433   4.9011673  32.4546493  70.2285433   4.9151673  33.0106493
  70.9955433   4.0531673  32.2706493  70.8155433   4.7781673  32.5096493
  74.8885433  13.6061673  33.5686493  75.3295433  13.6861673  34.3166493
  74.0835433  13.3901673  33.8266493  74.8345433  13.5861673  33.7176493
  74.2075433   8.2571673  47.2216493  73.8115433   9.0311673  47.2966493
  73.8015433   7.8841673  46.5456493  74.0895433   8.3161673  47.1326493
  72.2175433  12.6761673  34.1696493  71.9735433  12.3691673  34.9496493
  72.1845433  11.9731673  33.6536493  72.1765433  12.5271673  34.2086493
  75.0365433  10.9211673  32.9126493  74.2185433  10.6531673  33.0526493
  75.0085433  11.7731673  33.0976493  74.9115433  11.0081673  32.9606493
  76.2425433   6.3111673  48.2496493  75.9205433   5.7351673  47.6796493
  75.8835433   7.0661673  48.0036493  76.1425433   6.3371673  48.1296493
  74.6775433  16.6671673  48.4976493  74.7185433  16.7931673  49.3606493
  75.3285433  16.1071673  48.3416493  74.7795433  16.6031673  48.6026493
  72.2705433  15.0501673  49.8576493  72.8655433  15.4811673  50.3296493
  71.9065433  15.6741673  49.3686493  72.3045433  15.2061673  49.8546493
  70.5095433   4.6311673  39.2756493  70.1415433   4.9331673  40.0066493
  71.0435433   4.0021673  39.5596493  70.5335433   4.5831673  39.4256493
  70.1975433  13.0391673  46.7866493  69.6235433  13.4551673  47.2956493
  70.9305433  13.5041673  46.8816493  70.2215433  13.1691673  46.8756493
  71.9835433  16.3061673  35.5616493  71.8385433  16.4621673  34.7156493
  72.8495433  16.3851673  35.6396493  72.0905433  16.3411673  35.4486493
  76.1505433   8.7031673  35.2896493  76.2505433   8.8421673  34.4346493
  76.9685433   8.6431673  35.5856493  76.2855433   8.7141673  35.2066493
  72.6705433  15.1211673  42.0386493  72.5915433  14.3111673  41.7226493
  72.2265433  15.6081673  41.4666493  72.5935433  15.0731673  41.9076493
  70.2425433  17.3651673  45.6196493  70.7355433  17.3091673  46.3376493
  70.4305433  16.6321673  45.1846493  70.3435433  17.2481673  45.6616493
  69.3585433  10.9371673  18.8874083  68.9175433  11.0551673  19.6304083
  69.0755433  10.1621673  18.6024083  69.2515433  10.8401673  18.9554083
  69.1015433   4.7291673  15.3944083  68.3235433   4.8911673  15.0344083
  69.1405433   3.8581673  15.4164083  68.9925433   4.6241673  15.3444083
  72.2405433   9.9921673  14.0664083  71.8485433   9.6211673  13.3804083
  72.1605433   9.3941673  14.6954083  72.1705433   9.8491673  14.0574083
  71.8675433  11.6331673  17.9664083  72.4755433  11.4631673  18.5694083
  71.1165433  11.4931673  18.3874083  71.8465433  11.5871673  18.1174083
  70.7585433  14.7241673  14.0434083  71.2255433  14.8081673  13.3114083
  71.2135433  14.1461673  14.5124083  70.8945433  14.6511673  14.0044083
  69.2985433  13.6721673  25.1424083  69.4275433  13.3921673  25.9584083
  68.6885433  13.1311673  24.8334083  69.2275433  13.5511673  25.2174083
  75.8725433  11.1971673  30.2094083  75.6365433  11.1941673  31.0494083
  75.1245433  11.0491673  29.7854083  75.7265433  11.1741673  30.2704083
  70.7445433   8.1931673  19.3444083  70.2825433   7.8011673  18.7174083
  71.4445433   7.6801673  19.4364083  70.7795433   8.0601673  19.2654083
  75.2525433   3.8031673  24.6914083  75.9305433   3.8211673  24.1424083
  75.2075433   2.9671673  24.9364083  75.3455433   3.6821673  24.6464083
  75.8545433  14.3891673  27.4724083  75.9925433  15.1491673  27.0654083
  76.6455433  14.0241673  27.4994083  75.9915433  14.4481673  27.4164083
  72.7455433   6.2931673  19.3674083  73.5625433   6.1061673  19.6104083
  72.2685433   5.6791673  19.7634083  72.7955433   6.1751673  19.4624083
  76.9495433  12.2741673  21.9774083  77.2975433  11.4751673  22.0074083
  77.6145433  12.7781673  21.7224083  77.0995433  12.2301673  21.9444083
  77.0065433  11.7231673  18.1884083  77.3375433  11.0791673  18.6744083
  77.2465433  11.5121673  17.3774083  77.0905433  11.5971673  18.1404083
  69.2005433   5.9541673  22.3574083  68.9445433   6.7851673  22.2824083
  68.5365433   5.5711673  22.7744083  69.0645433   6.0201673  22.4084083
  69.1105433  15.6641673  20.2574083  68.5185433  16.2221673  19.9444083
  69.5365433  15.3951673  19.5454083  69.0865433  15.7061673  20.1064083
  74.9505433  13.5081673  17.7374083  74.3715433  13.2331673  18.3294083
  75.5745433  12.8991673  17.7624083  74.9575433  13.3781673  17.8284083
  75.5355433   2.9041673  32.1464083  75.6525433   2.4501673  31.4104083
  75.8235433   3.7021673  31.9434083  75.5955433   2.9551673  32.0074083
  70.6555433  14.3341673  18.1884083  71.3115433  13.7591673  18.2034083
  71.0445433  15.0831673  17.9674083  70.8105433  14.3591673  18.1584083
  71.2685433   2.5011673  31.1304083  70.4905433   2.1111673  31.0584083
  71.7595433   2.0891673  30.5394083  71.2255433   2.3821673  31.0324083
  71.4735433  12.8211673  21.6884083  71.8965433  12.4651673  21.0144083
  71.7975433  12.3991673  22.3804083  71.5835433  12.7061673  21.6914083
  74.7045433  15.6731673  20.9844083  75.5485433  15.7771673  20.7894083
  74.4075433  16.4911673  21.0524083  74.7855433  15.8091673  20.9654083
  73.7025433  16.8921673  26.7244083  73.9945433  16.8251673  27.5444083
  73.0765433  16.2871673  26.6794083  73.6535433  16.7931673  26.8394083
  68.6165433   3.0491673  28.7164083  68.6125433   3.6361673  29.3624083
  69.2105433   3.3611673  28.1594083  68.7035433   3.1821673  28.7294083
  69.5535433   2.6441673  17.6314083  69.4395433   1.7801673  17.6624083
  69.0785433   2.9381673  18.3014083  69.4665433   2.5601673  17.7344083
  71.6955433  15.0541673  25.8464083  70.9975433  14.5461673  25.9724083
  71.9555433  14.8491673  25.0384083  71.6305433  14.9491673  25.7454083
  77.4555433   3.1601673  20.7894083  77.5295433   3.7281673  20.1314083
  77.5765433   3.6521673  21.4994083  77.4835433   3.3171673  20.7974083
  73.0565433  13.9051673  28.4134083  73.8975433  13.9681673  28.1914083
  73.0195433  14.3021673  29.1894083  73.1755433  13.9731673  28.4954083
  75.0195433   9.4161673  23.1624083  75.1915433   9.2061673  23.9914083
  74.3645433   8.8821673  22.9464083  74.9485433   9.3061673  23.2534083
  75.7695433   9.3541673  25.7524083  75.8225433  10.2011673  25.9544083
  75.4845433   8.9841673  26.4894083  75.7355433   9.4241673  25.8904083
  68.5905433  13.7251673  31.9634083  69.3465433  14.0741673  32.2214083
  68.7675433  12.8721673  31.9064083  68.7285433  13.6501673  31.9934083
  72.5115433   2.7931673  20.7914083  72.7835433   2.3631673  20.0834083
  72.3355433   2.1571673  21.3624083  72.5255433   2.6361673  20.7714083
  72.3355433  10.2201673  20.3404083  73.1865433  10.1401673  20.1674083
  71.9785433   9.5381673  19.9284083  72.4085433  10.1071673  20.2534083
  71.1025433  16.9451673  21.5774083  70.4295433  16.4471673  21.3324083
  71.5055433  17.1301673  20.8264083  71.0625433  16.8991673  21.4304083
  70.6525433   3.8951673  23.8734083  71.4955433   4.1151673  23.8304083
  70.2635433   4.4681673  23.3424083  70.7195433   4.0121673  23.7884083
  74.7035433  10.2271673  18.5754083  75.4165433  10.7221673  18.6654083
  74.9255433   9.6601673  17.9494083  74.8415433  10.2161673  18.4964083
  68.8595433  11.8701673  21.8954083  68.1925433  12.3581673  22.1714083
  69.5395433  12.4151673  21.9244083  68.8615433  12.0221673  21.9404083
  76.5065433   5.5801673  31.9914083  76.0225433   6.1571673  32.4334083
  76.4785433   5.8751673  31.1704083  76.4305433   5.7091673  31.9354083
  68.9255433   8.5541673  16.9984083  68.7405433   7.7151673  17.1504083
  69.5845433   8.5181673  16.4284083  68.9955433   8.4251673  16.9364083
  69.0975433  12.7181673  16.5734083  69.6495433  13.2871673  16.9374083
  68.8655433  12.2031673  17.2384083  69.1445433  12.7261673  16.7254083
  73.3015433  11.7181673  23.6624083  73.7685433  12.0071673  24.3404083
  73.8735433  11.2401673  23.2084083  73.4555433  11.6901673  23.6954083
  68.9275433  11.1671673  14.2014083  69.6835433  10.7351673  14.2594083
  68.9425433  11.6991673  14.8924083  69.0415433  11.1821673  14.3124083
  69.8675433   9.3881673  22.2064083  70.2985433   9.2591673  21.4594083
  69.6625433  10.2361673  22.1804083  69.9005433   9.4941673  22.0924083
  76.2135433   2.9521673  15.8564083  76.2115433   2.8351673  14.9914083
  76.0325433   3.8001673  15.9484083  76.1865433   3.0601673  15.7424083
  73.9515433  12.9041673  20.4884083  74.0775433  13.7471673  20.6754083
  74.6195433  12.5051673  20.8844083  74.0695433  12.9701673  20.5744083
  72.0815433   6.3871673  30.3504083  71.5455433   5.8811673  30.8184083
  72.1015433   5.9971673  29.5704083  72.0045433   6.2541673  30.3044083
  72.5665433   5.7841673  15.4904083  72.4385433   5.3361673  16.2284083
  71.9845433   5.4421673  14.9384083  72.4615433   5.6671673  15.5184083
  72.7335433   7.6141673  22.0894083  71.9525433   7.5551673  21.7064083
  72.8055433   6.8621673  22.5264083  72.6285433   7.4951673  22.0974083
  73.1635433   7.3511673  25.5574083  73.1885433   6.6761673  25.0064083
  72.5175433   7.8471673  25.2454083  73.0725433   7.3241673  25.4304083
  77.2635433  16.1281673  24.9494083  76.9865433  15.4871673  24.4264083
  77.0555433  16.8541673  24.5114083  77.1925433  16.1411673  24.8074083
  70.9625433   8.7061673  31.1164083  70.9255433   9.2071673  30.4024083
  71.2935433   7.9541673  30.8214083  71.0055433   8.6681673  30.9674083
  76.8615433  13.7561673  30.5514083  77.2155433  13.5781673  31.3284083
  76.4255433  13.0271673  30.3524083  76.8495433  13.6221673  30.6374083
  77.8335433   4.5031673  23.1894083  78.3135433   5.2021673  23.3974083
  78.2065433   3.8561673  23.6404083  77.9595433   4.5111673  23.2864083
  74.9445433  16.2711673  17.1364083  74.7975433  15.4951673  17.5074083
  75.6335433  16.1241673  16.6214083  75.0245433  16.1341673  17.1154083
  77.2365433  15.7871673  15.5384083  77.8585433  15.9501673  16.1284083
  77.2725433  16.4781673  15.0064083  77.3335433  15.9131673  15.5474083
  71.7375433   8.3211673  16.3674083  72.0615433   7.5421673  16.1454083
  72.3835433   8.6891673  16.8224083  71.8805433   8.2601673  16.4014083
  78.4275433   7.6631673  17.7924083  78.4865433   8.3131673  18.3714083
  78.2385433   6.9671673  18.2834083  78.4085433   7.6561673  17.9504083
  72.9235433   2.1801673  14.3044083  72.4125433   2.2331673  13.5984083
  73.7075433   2.4201673  14.0084083  72.9635433   2.2231673  14.1564083
  77.6505433   9.7101673  22.2234083  76.8035433   9.5161673  22.3044083
  77.9745433   9.5451673  23.0164083  77.5725433   9.6571673  22.3524083
  74.4025433  16.4401673  13.1094083  74.8415433  15.7431673  13.3974083
  74.6095433  17.0641673  13.6824083  74.4985433  16.4291673  13.2364083
  71.4985433   9.4031673  24.5394083  72.2205433   9.8911673  24.5024083
  71.2285433   9.3731673  23.7104083  71.5655433   9.4711673  24.4114083
  74.7285433   4.5741673  21.2744083  75.5745433   4.3841673  21.3724083
  74.3585433   3.7971673  21.1364083  74.7985433   4.4311673  21.2684083
  69.5495433   5.9121673  17.9294083  70.0385433   5.6201673  18.5904083
  69.6785433   5.3191673  17.3024083  69.6405433   5.7811673  17.9344083
  74.0745433   7.3461673  13.4154083  73.4645433   6.9411673  13.8894083
  73.6885433   7.4641673  12.6424083  73.9275433   7.3031673  13.3714083
  70.8935433  10.4551673  28.8174083  70.4725433   9.9371673  28.2564083
  70.5415433  11.2411673  28.6744083  70.7795433  10.4951673  28.7134083
  75.5295433   5.8071673  16.1254083  75.8015433   6.6331673  16.1924083
  74.6665433   5.8821673  16.0294083  75.4425433   5.9401673  16.1204083
  69.0095433   1.7771673  22.6614083  69.0535433   2.1211673  21.8604083
  69.7645433   2.0141673  23.0284083  69.1275433   1.8631673  22.5974083
  75.6325433  12.2661673  25.4354083  75.3345433  12.8581673  26.0024083
  75.6875433  12.7081673  24.6864083  75.5965433  12.4191673  25.4084083
  73.6115433  11.2161673  28.8334083  72.8055433  10.9261673  29.0004083
  73.5225433  12.0841673  28.8394083  73.4795433  11.3011673  28.8584083
  74.8585433   4.2921673  27.6674083  75.0195433   3.5481673  28.0944083
  74.8135433   4.0431673  26.8324083  74.8755433   4.1451673  27.6074083
  77.4125433  16.0821673  20.1544083  77.9585433  16.7611673  20.2084083
  77.0625433  16.1641673  19.3594083  77.4415433  16.1951673  20.0444083
  75.5955433  14.3101673  23.5434083  74.9715433  14.8921673  23.3614083
  75.8435433  14.0241673  22.7574083  75.5395433  14.3541673  23.4004083
  77.1895433   9.0861673  13.4584083  76.3845433   8.9091673  13.1734083
  77.1565433   9.9371673  13.6504083  77.0655433   9.1851673  13.4454083
  73.1195433   5.1531673  23.6084083  73.5595433   5.0501673  22.8624083
  73.6645433   4.8401673  24.2134083  73.2645433   5.0921673  23.5874083
  78.3075433  11.1781673  28.4434083  77.5125433  11.1141673  28.7944083
  78.3785433  12.0251673  28.2484083  78.2005433  11.2931673  28.4664083
  74.1375433  17.3851673  23.7604083  74.1485433  17.4441673  24.6304083
  73.7125433  16.6381673  23.6104083  74.0765433  17.2831673  23.8664083
  72.2955433   3.2801673  16.9154083  72.4215433   2.9511673  16.1174083
  71.4835433   3.0311673  17.1144083  72.1945433   3.1951673  16.8274083
  70.9015433  16.8831673  29.2024083  70.2475433  16.3141673  29.3004083
  70.5265433  17.6561673  29.3534083  70.7495433  16.9131673  29.2394083
  72.2725433   5.2911673  27.3314083  72.6475433   5.9101673  26.8444083
  72.9465433   4.8171673  27.6164083  72.4275433   5.3131673  27.3014083
  70.0475433   3.7391673  26.6064083  70.1245433   3.5701673  25.7534083
  70.7935433   4.1451673  26.8034083  70.1685433   3.7741673  26.5094083
  69.4445433   8.9651673  26.8304083  69.7645433   9.1841673  26.0494083
  69.3445433   8.1001673  26.7754083  69.4765433   8.8701673  26.7074083
  70.9005433   4.9011673  13.4484083  70.2285433   4.9151673  14.0044083
  70.9955433   4.0531673  13.2644083  70.8155433   4.7781673  13.5034083
  74.8885433  13.6061673  14.5624083  75.3295433  13.6861673  15.3104083
  74.0835433  13.3901673  14.8204083  74.8345433  13.5861673  14.7114083
  74.2075433   8.2571673  28.2154083  73.8115433   9.0311673  28.2904083
  73.8015433   7.8841673  27.5394083  74.0895433   8.3161673  28.1264083
  72.2175433  12.6761673  15.1634083  71.9735433  12.3691673  15.9434083
  72.1845433  11.9731673  14.6474083  72.1765433  12.5271673  15.2024083
  75.0365433  10.9211673  13.9064083  74.2185433  10.6531673  14.0464083
  75.0085433  11.7731673  14.0914083  74.9115433  11.0081673  13.9544083
  76.2425433   6.3111673  29.2434083  75.9205433   5.7351673  28.6734083
  75.8835433   7.0661673  28.9974083  76.1425433   6.3371673  29.1234083
  74.6775433  16.6671673  29.4914083  74.7185433  16.7931673  30.3544083
  75.3285433  16.1071673  29.3354083  74.7795433  16.6031673  29.5964083
  72.2705433  15.0501673  30.8514083  72.8655433  15.4811673  31.3234083
  71.9065433  15.6741673  30.3624083  72.3045433  15.2061673  30.8484083
  70.5095433   4.6311673  20.2694083  70.1415433   4.9331673  21.0004083
  71.0435433   4.0021673  20.5534083  70.5335433   4.5831673  20.4194083
  70.1975433  13.0391673  27.7804083  69.6235433  13.4551673  28.2894083
  70.9305433  13.5041673  27.8754083  70.2215433  13.1691673  27.8694083
  71.9835433  16.3061673  16.5554083  71.8385433  16.4621673  15.7094083
  72.8495433  16.3851673  16.6334083  72.0905433  16.3411673  16.4424083
  76.1505433   8.7031673  16.2834083  76.2505433   8.8421673  15.4284083
  76.9685433   8.6431673  16.5794083  76.2855433   8.7141673  16.2004083
  72.6705433  15.1211673  23.0324083  72.5915433  14.3111673  22.7164083
  72.2265433  15.6081673  22.4604083  72.5935433  15.0731673  22.9014083
  70.2425433  17.3651673  26.6134083  70.7355433  17.3091673  27.3314083
  70.4305433  16.6321673  26.1784083  70.3435433  17.2481673  26.6554083
  69.2985433  13.6721673   6.1361673  69.4275433  13.3921673   6.9521673
  68.6885433  13.1311673   5.8271673  69.2275433  13.5511673   6.2111673
  75.8725433  11.1971673  11.2031673  75.6365433  11.1941673  12.0431673
  75.1245433  11.0491673  10.7791673  75.7265433  11.1741673  11.2641673
  75.2525433   3.8031673   5.6851673  75.9305433   3.8211673   5.1361673
  75.2075433   2.9671673   5.9301673  75.3455433   3.6821673   5.6401673
  75.8545433  14.3891673   8.4661673  75.9925433  15.1491673   8.0591673
  76.6455433  14.0241673   8.4931673  75.9915433  14.4481673   8.4101673
  76.9495433  12.2741673   2.9711673  77.2975433  11.4751673   3.0011673
  77.6145433  12.7781673   2.7161673  77.0995433  12.2301673   2.9381673
  69.2005433   5.9541673   3.3511673  68.9445433   6.7851673   3.2761673
  68.5365433   5.5711673   3.7681673  69.0645433   6.0201673   3.4021673
  75.5355433   2.9041673  13.1401673  75.6525433   2.4501673  12.4041673
  75.8235433   3.7021673  12.9371673  75.5955433   2.9551673  13.0011673
  71.2685433   2.5011673  12.1241673  70.4905433   2.1111673  12.0521673
  71.7595433   2.0891673  11.5331673  71.2255433   2.3821673  12.0261673
  71.4735433  12.8211673   2.6821673  71.8965433  12.4651673   2.0081673
  71.7975433  12.3991673   3.3741673  71.5835433  12.7061673   2.6851673
  74.7045433  15.6731673   1.9781673  75.5485433  15.7771673   1.7831673
  74.4075433  16.4911673   2.0461673  74.7855433  15.8091673   1.9591673
  73.7025433  16.8921673   7.7181673  73.9945433  16.8251673   8.5381673
  73.0765433  16.2871673   7.6731673  73.6535433  16.7931673   7.8331673
  68.6165433   3.0491673   9.7101673  68.6125433   3.6361673  10.3561673
  69.2105433   3.3611673   9.1531673  68.7035433   3.1821673   9.7231673
  71.6955433  15.0541673   6.8401673  70.9975433  14.5461673   6.9661673
  71.9555433  14.8491673   6.0321673  71.6305433  14.9491673   6.7391673
  73.0565433  13.9051673   9.4071673  73.8975433  13.9681673   9.1851673
  73.0195433  14.3021673  10.1831673  73.1755433  13.9731673   9.4891673
  75.0195433   9.4161673   4.1561673  75.1915433   9.2061673   4.9851673
  74.3645433   8.8821673   3.9401673  74.9485433   9.3061673   4.2471673
  75.7695433   9.3541673   6.7461673  75.8225433  10.2011673   6.9481673
  75.4845433   8.9841673   7.4831673  75.7355433   9.4241673   6.8841673
  68.5905433  13.7251673  12.9571673  69.3465433  14.0741673  13.2151673
  68.7675433  12.8721673  12.9001673  68.7285433  13.6501673  12.9871673
  71.1025433  16.9451673   2.5711673  70.4295433  16.4471673   2.3261673
  71.5055433  17.1301673   1.8201673  71.0625433  16.8991673   2.4241673
  70.6525433   3.8951673   4.8671673  71.4955433   4.1151673   4.8241673
  70.2635433   4.4681673   4.3361673  70.7195433   4.0121673   4.7821673
  68.8595433  11.8701673   2.8891673  68.1925433  12.3581673   3.1651673
  69.5395433  12.4151673   2.9181673  68.8615433  12.0221673   2.9341673
  76.5065433   5.5801673  12.9851673  76.0225433   6.1571673  13.4271673
  76.4785433   5.8751673  12.1641673  76.4305433   5.7091673  12.9291673
  73.3015433  11.7181673   4.6561673  73.7685433  12.0071673   5.3341673
  73.8735433  11.2401673   4.2021673  73.4555433  11.6901673   4.6891673
  69.8675433   9.3881673   3.2001673  70.2985433   9.2591673   2.4531673
  69.6625433  10.2361673   3.1741673  69.9005433   9.4941673   3.0861673
  72.0815433   6.3871673  11.3441673  71.5455433   5.8811673  11.8121673
  72.1015433   5.9971673  10.5641673  72.0045433   6.2541673  11.2981673
  72.7335433   7.6141673   3.0831673  71.9525433   7.5551673   2.7001673
  72.8055433   6.8621673   3.5201673  72.6285433   7.4951673   3.0911673
  73.1635433   7.3511673   6.5511673  73.1885433   6.6761673   6.0001673
  72.5175433   7.8471673   6.2391673  73.0725433   7.3241673   6.4241673
  77.2635433  16.1281673   5.9431673  76.9865433  15.4871673   5.4201673
  77.0555433  16.8541673   5.5051673  77.1925433  16.1411673   5.8011673
  70.9625433   8.7061673  12.1101673  70.9255433   9.2071673  11.3961673
  71.2935433   7.9541673  11.8151673  71.0055433   8.6681673  11.9611673
  76.8615433  13.7561673  11.5451673  77.2155433  13.5781673  12.3221673
  76.4255433  13.0271673  11.3461673  76.8495433  13.6221673  11.6311673
  77.8335433   4.5031673   4.1831673  78.3135433   5.2021673   4.3911673
  78.2065433   3.8561673   4.6341673  77.9595433   4.5111673   4.2801673
  77.6505433   9.7101673   3.2171673  76.8035433   9.5161673   3.2981673
  77.9745433   9.5451673   4.0101673  77.5725433   9.6571673   3.3461673
  71.4985433   9.4031673   5.5331673  72.2205433   9.8911673   5.4961673
  71.2285433   9.3731673   4.7041673  71.5655433   9.4711673   5.4051673
  74.7285433   4.5741673   2.2681673  75.5745433   4.3841673   2.3661673
  74.3585433   3.7971673   2.1301673  74.7985433   4.4311673   2.2621673
  70.8935433  10.4551673   9.8111673  70.4725433   9.9371673   9.2501673
  70.5415433  11.2411673   9.6681673  70.7795433  10.4951673   9.7071673
  69.0095433   1.7771673   3.6551673  69.0535433   2.1211673   2.8541673
  69.7645433   2.0141673   4.0221673  69.1275433   1.8631673   3.5911673
  75.6325433  12.2661673   6.4291673  75.3345433  12.8581673   6.9961673
  75.6875433  12.7081673   5.6801673  75.5965433  12.4191673   6.4021673
  73.6115433  11.2161673   9.8271673  72.8055433  10.9261673   9.9941673
  73.5225433  12.0841673   9.8331673  73.4795433  11.3011673   9.8521673
  74.8585433   4.2921673   8.6611673  75.0195433   3.5481673   9.0881673
  74.8135433   4.0431673   7.8261673  74.8755433   4.1451673   8.6011673
  75.5955433  14.3101673   4.5371673  74.9715433  14.8921673   4.3551673
  75.8435433  14.0241673   3.7511673  75.5395433  14.3541673   4.3941673
  73.1195433   5.1531673   4.6021673  73.5595433   5.0501673   3.8561673
  73.6645433   4.8401673   5.2071673  73.2645433   5.0921673   4.5811673
  78.3075433  11.1781673   9.4371673  77.5125433  11.1141673   9.7881673
  78.3785433  12.0251673   9.2421673  78.2005433  11.2931673   9.4601673
  74.1375433  17.3851673   4.7541673  74.1485433  17.4441673   5.6241673
  73.7125433  16.6381673   4.6041673  74.0765433  17.2831673   4.8601673
  70.9015433  16.8831673  10.1961673  70.2475433  16.3141673  10.2941673
  70.5265433  17.6561673  10.3471673  70.7495433  16.9131673  10.2331673
  72.2725433   5.2911673   8.3251673  72.6475433   5.9101673   7.8381673
  72.9465433   4.8171673   8.6101673  72.4275433   5.3131673   8.2951673
  70.0475433   3.7391673   7.6001673  70.1245433   3.5701673   6.7471673
  70.7935433   4.1451673   7.7971673  70.1685433   3.7741673   7.5031673
  69.4445433   8.9651673   7.8241673  69.7645433   9.1841673   7.0431673
  69.3445433   8.1001673   7.7691673  69.4765433   8.8701673   7.7011673
  74.2075433   8.2571673   9.2091673  73.8115433   9.0311673   9.2841673
  73.8015433   7.8841673   8.5331673  74.0895433   8.3161673   9.1201673
  76.2425433   6.3111673  10.2371673  75.9205433   5.7351673   9.6671673
  75.8835433   7.0661673   9.9911673  76.1425433   6.3371673  10.1171673
  74.6775433  16.6671673  10.4851673  74.7185433  16.7931673  11.3481673
  75.3285433  16.1071673  10.3291673  74.7795433  16.6031673  10.5901673
  72.2705433  15.0501673  11.8451673  72.8655433  15.4811673  12.3171673
  71.9065433  15.6741673  11.3561673  72.3045433  15.2061673  11.8421673
  70.1975433  13.0391673   8.7741673  69.6235433  13.4551673   9.2831673
  70.9305433  13.5041673   8.8691673  70.2215433  13.1691673   8.8631673
  72.6705433  15.1211673   4.0261673  72.5915433  14.3111673   3.7101673
  72.2265433  15.6081673   3.4541673  72.5935433  15.0731673   3.8951673
  70.2425433  17.3651673   7.6071673  70.7355433  17.3091673   8.3251673
  70.4305433  16.6321673   7.1721673  70.3435433  17.2481673   7.6491673
  60.8156993  73.7935993  75.7791313  60.5706993  74.2815993  75.0991313
  61.6786993  73.7205993  75.6791313  60.9066993  73.8545993  75.6641313
  60.6246993  80.7095993  80.4501313  60.1006993  81.3055993  80.8131313
  61.0216993  80.3415993  81.1341313  60.6056993  80.7435993  80.6051313
  50.4936993  84.8495993  75.9061313  50.0526993  84.9675993  76.6491313
  50.2106993  84.0745993  75.6211313  50.3866993  84.7525993  75.9741313
  66.7686993  88.1505993  73.4211313  67.4696993  87.6315993  73.4171313
  66.1816993  87.7055993  72.9521313  66.7856993  88.0075993  73.3511313
  50.2366993  78.6415993  72.4131313  49.4586993  78.8035993  72.0531313
  50.2756993  77.7705993  72.4351313  50.1276993  78.5365993  72.3631313
  53.3756993  83.9045993  71.0851313  52.9836993  83.5335993  70.3991313
  53.2956993  83.3065993  71.7141313  53.3056993  83.7615993  71.0761313
  63.2956993  81.7765993  77.1261313  63.3756993  81.7805993  76.2571313
  62.7116993  81.1445993  77.2751313  63.2206993  81.6835993  77.0201313
  53.0026993  85.5455993  74.9851313  53.6106993  85.3755993  75.5881313
  52.2516993  85.4055993  75.4061313  52.9816993  85.4995993  75.1361313
  57.2846993  74.8805993  74.9341313  57.2146993  75.5575993  74.3881313
  58.0256993  74.4925993  74.6851313  57.3836993  74.9235993  74.8161313
  51.8936993  88.6365993  71.0621313  52.3606993  88.7205993  70.3301313
  52.3486993  88.0585993  71.5311313  52.0296993  88.5635993  71.0231313
  51.8796993  82.1055993  76.3631313  51.4176993  81.7135993  75.7361313
  52.5796993  81.5925993  76.4551313  51.9146993  81.9725993  76.2841313
  53.8806993  80.2055993  76.3861313  54.6976993  80.0185993  76.6291313
  53.4036993  79.5915993  76.7821313  53.9306993  80.0875993  76.4811313
  58.0846993  86.1865993  78.9961313  58.4326993  85.3875993  79.0261313
  58.7496993  86.6905993  78.7411313  58.2346993  86.1425993  78.9631313
  58.1416993  85.6355993  75.2071313  58.4726993  84.9915993  75.6931313
  58.3816993  85.4245993  74.3961313  58.2256993  85.5095993  75.1591313
  54.4776993  75.2995993  75.6521313  54.1816993  75.8005993  75.0021313
  55.3446993  75.3775993  75.5951313  54.5616993  75.3855993  75.5481313
  57.4566993  74.4415993  77.8751313  57.5296993  75.3015993  78.0041313
  57.4186993  74.3665993  77.0071313  57.4616993  74.5575993  77.7661313
  62.1296993  77.3675993  70.1741313  61.6796993  78.0485993  70.4811313
  62.2436993  76.8635993  70.8771313  62.0806993  77.3935993  70.3231313
  50.3356993  79.8665993  79.3761313  50.0796993  80.6975993  79.3011313
  49.6716993  79.4835993  79.7931313  50.1996993  79.9325993  79.4271313
  56.0856993  87.4205993  74.7561313  55.5066993  87.1455993  75.3481313
  56.7096993  86.8115993  74.7811313  56.0926993  87.2905993  74.8471313
  53.3646993  74.6835993  79.8671313  52.8436993  74.0555993  79.5591313
  53.9556993  74.2465993  80.3381313  53.3756993  74.5255993  79.8911313
  51.7906993  88.2465993  75.2071313  52.4466993  87.6715993  75.2221313
  52.1796993  88.9955993  74.9861313  51.9456993  88.2715993  75.1771313
  67.5236993  77.3405993  76.4691313  67.1776993  78.0185993  76.8951313
  66.8876993  76.7425993  76.4851313  67.3786993  77.3525993  76.5341313
  52.6086993  86.7335993  78.7071313  53.0316993  86.3775993  78.0331313
  52.9326993  86.3115993  79.3991313  52.7186993  86.6185993  78.7101313
  59.6466993  78.9825993  76.0901313  59.9336993  78.7505993  75.3001313
  60.3786993  79.0615993  76.5591313  59.7966993  78.9595993  76.0431313
  60.3686993  79.3215993  71.2111313  60.6496993  80.1095993  71.4601313
  59.5926993  79.4865993  70.8481313  60.2956993  79.4625993  71.1941313
  59.2276993  87.4925993  71.0271313  59.0466993  88.0375993  71.6841313
  59.9936993  87.7825993  70.7261313  59.3136993  87.6165993  71.0801313
  62.7346993  75.3885993  72.0811313  63.2746993  74.7065993  72.1571313
  62.7966993  75.7865993  72.8551313  62.8236993  75.3465993  72.2071313
  50.6886993  76.5565993  74.6501313  50.5746993  75.6925993  74.6811313
  50.2136993  76.8505993  75.3201313  50.6016993  76.4725993  74.7531313
  59.9926993  77.7645993  73.3951313  59.4846993  77.1025993  73.1411313
  60.0446993  78.2685993  72.6851313  59.9256993  77.7415993  73.2531313
  59.9926993  74.7055993  73.2861313  59.5376993  74.3035993  72.6601313
  60.7656993  74.8605993  72.9111313  60.0396993  74.6695993  73.1381313
  58.5906993  77.0725993  77.8081313  58.6646993  77.6405993  77.1501313
  58.7116993  77.5645993  78.5181313  58.6186993  77.2295993  77.8161313
  63.8156993  86.9075993  76.2201313  64.5166993  86.4255993  76.4091313
  63.1556993  86.3385993  76.2651313  63.8216993  86.7525993  76.2541313
  53.1986993  72.8955993  76.1561313  53.7346993  73.5835993  76.1461313
  53.2016993  72.6215993  75.3281313  53.2776993  72.9565993  76.0321313
  56.1546993  83.3285993  80.1811313  56.3266993  83.1185993  81.0101313
  55.4996993  82.7945993  79.9651313  56.0836993  83.2185993  80.2721313
  63.6386993  73.1865993  76.5321313  63.6876993  72.8685993  77.3431313
  63.9616993  72.5425993  76.0391313  63.6936993  73.0445993  76.5791313
  53.6466993  76.7055993  77.8101313  53.9186993  76.2755993  77.1021313
  53.4706993  76.0695993  78.3811313  53.6606993  76.5485993  77.7901313
  66.3346993  84.4005993  72.0281313  66.4536993  84.1135993  72.8431313
  67.1416993  84.4215993  71.6981313  66.4706993  84.3615993  72.1001313
  53.4706993  84.1325993  77.3591313  54.3216993  84.0525993  77.1861313
  53.1136993  83.4505993  76.9471313  53.5436993  84.0195993  77.2721313
  51.7876993  77.8075993  80.8921313  52.6306993  78.0275993  80.8491313
  51.3986993  78.3805993  80.3611313  51.8546993  77.9245993  80.8071313
  64.2296993  80.9375993  71.6131313  64.0096993  81.6685993  71.1911313
  63.7816993  80.9885993  72.3601313  64.1306993  81.0525993  71.6611313
  55.8386993  84.1395993  75.5941313  56.5516993  84.6345993  75.6841313
  56.0606993  83.5725993  74.9681313  55.9766993  84.1285993  75.5151313
  68.4166993  75.7985993  71.0661313  67.7546993  75.2305993  71.0891313
  68.2236993  76.3105993  70.3861313  68.2906993  75.7905993  70.9691313
  49.9946993  85.7825993  78.9141313  49.3276993  86.2705993  79.1901313
  50.6746993  86.3275993  78.9431313  49.9966993  85.9345993  78.9591313
  50.0606993  82.4665993  74.0171313  49.8756993  81.6275993  74.1691313
  50.7196993  82.4305993  73.4471313  50.1306993  82.3375993  73.9551313
  66.4186993  75.3565993  73.3451313  67.1646993  74.9495993  73.5441313
  66.6816993  76.0715993  72.9201313  66.5676993  75.4025993  73.3121313
  60.3616993  87.8425993  77.9211313  59.8386993  88.4765993  77.6281313
  60.6716993  87.4785993  77.1921313  60.3296993  87.8825993  77.7701313
  50.2326993  86.6305993  73.5921313  50.7846993  87.1995993  73.9561313
  50.0006993  86.1155993  74.2571313  50.2796993  86.6385993  73.7441313
  54.4366993  85.6305993  80.6811313  54.9036993  85.9195993  81.3591313
  55.0086993  85.1525993  80.2271313  54.5906993  85.6025993  80.7141313
  62.8726993  77.6445993  78.4181313  63.2166993  77.7965993  79.2051313
  62.4196993  76.9065993  78.5311313  62.8566993  77.5575993  78.5511313
  50.0626993  85.0795993  71.2201313  50.8186993  84.6475993  71.2781313
  50.0776993  85.6115993  71.9111313  50.1766993  85.0945993  71.3311313
  51.0026993  83.3005993  79.2251313  51.4336993  83.1715993  78.4781313
  50.7976993  84.1485993  79.1991313  51.0356993  83.4065993  79.1111313
  57.3486993  76.8645993  72.8751313  57.3466993  76.7475993  72.0101313
  57.1676993  77.7125993  72.9671313  57.3216993  76.9725993  72.7611313
  55.0866993  86.8165993  77.5071313  55.2126993  87.6595993  77.6941313
  55.7546993  86.4175993  77.9031313  55.2046993  86.8825993  77.5931313
  53.7016993  79.6965993  72.5091313  53.5736993  79.2485993  73.2471313
  53.1196993  79.3545993  71.9571313  53.5966993  79.5795993  72.5371313
  53.8686993  81.5265993  79.1081313  53.0876993  81.4675993  78.7251313
  53.9406993  80.7745993  79.5451313  53.7636993  81.4075993  79.1161313
  64.1936993  78.9765993  80.9721313  63.5316993  79.3045993  81.4351313
  64.3806993  79.6105993  80.4031313  64.1236993  79.1185993  80.9561313
  62.3866993  76.9455993  74.4831313  62.8766993  77.6625993  74.4061313
  61.5966993  77.2065993  74.2201313  62.3426993  77.0895993  74.4331313
  58.9686993  78.4155993  80.2081313  59.4486993  79.1145993  80.4161313
  59.3416993  77.7685993  80.6591313  59.0946993  78.4235993  80.3051313
  61.1576993  81.5845993  72.4821313  61.1496993  82.3065993  71.9921313
  60.5186993  81.7195993  73.0591313  61.0626993  81.7115993  72.4951313
  66.1296993  85.4545993  76.4631313  66.4856993  85.1045993  77.1781313
  66.1216993  84.7935993  75.8931313  66.1816993  85.3045993  76.4841313
  62.1746993  88.5205993  80.3071313  61.5716993  88.2245993  79.7501313
  62.7196993  88.9725993  79.7981313  62.1656993  88.5435993  80.1491313
  62.1876993  85.3715993  79.7071313  61.3906993  85.5955993  79.9811313
  62.4456993  84.7775993  80.2921313  62.1076993  85.3165993  79.8341313
  55.7506993  73.9265993  72.1431313  55.8476993  73.8195993  73.0041313
  55.0426993  74.4325993  72.0781313  55.6606993  73.9855993  72.2611313
  52.8726993  82.2335993  73.3861313  53.1966993  81.4545993  73.1641313
  53.5186993  82.6015993  73.8411313  53.0156993  82.1725993  73.4201313
  49.8696993  73.8945993  74.3541313  49.9986993  73.1865993  73.8621313
  49.5026993  73.5765993  75.0791313  49.8346993  73.7425993  74.3891313
  59.5626993  81.5755993  74.8111313  59.6216993  82.2255993  75.3901313
  59.3736993  80.8795993  75.3021313  59.5436993  81.5685993  74.9691313
  64.7886993  85.9045993  80.6801313  64.3096993  86.2025993  80.0141313
  64.4326993  85.1285993  80.8581313  64.6656993  85.8335993  80.6081313
  54.0586993  76.0925993  71.3231313  53.5476993  76.1455993  70.6171313
  54.8426993  76.3325993  71.0271313  54.0986993  76.1355993  71.1751313
  58.7856993  83.6225993  79.2421313  57.9386993  83.4285993  79.3231313
  59.1096993  83.4575993  80.0351313  58.7076993  83.5695993  79.3711313
  52.6336993  83.3155993  81.5581313  53.3556993  83.8035993  81.5211313
  52.3636993  83.2855993  80.7291313  52.7006993  83.3835993  81.4301313
  55.8636993  78.4865993  78.2931313  56.7096993  78.2965993  78.3911313
  55.4936993  77.7095993  78.1551313  55.9336993  78.3435993  78.2871313
  50.6846993  79.8245993  74.9481313  51.1736993  79.5325993  75.6091313
  50.8136993  79.2315993  74.3211313  50.7756993  79.6935993  74.9531313
  55.2096993  81.2585993  70.4341313  54.5996993  80.8535993  70.9081313
  54.8236993  81.3765993  69.6611313  55.0626993  81.2155993  70.3901313
  66.9756993  82.9175993  79.2361313  66.6896993  83.3185993  79.9561313
  67.8356993  82.8555993  79.3631313  67.0606993  82.9675993  79.3611313
  56.6646993  79.7195993  73.1441313  56.9366993  80.5455993  73.2111313
  55.8016993  79.7945993  73.0481313  56.5776993  79.8525993  73.1391313
  50.1446993  75.6895993  79.6801313  50.1886993  76.0335993  78.8791313
  50.8996993  75.9265993  80.0471313  50.2626993  75.7755993  79.6161313
  68.1066993  88.5505993  79.7651313  68.3966993  88.8075993  78.9841313
  68.8016993  88.6465993  80.2841313  68.2526993  88.6025993  79.7261313
  64.7116993  87.1535993  71.7471313  65.0456993  86.3475993  71.7821313
  63.9566993  87.0815993  72.1771313  64.6496993  87.0235993  71.8161313
  65.1936993  78.9875993  77.4061313  64.4486993  78.6645993  77.7241313
  65.1956993  79.8135993  77.6861313  65.0836993  79.0615993  77.4941313
  62.0856993  85.0285993  71.1501313  62.7696993  84.5145993  70.9811313
  61.6686993  85.0745993  70.3851313  62.1246993  84.9595993  71.0121313
  56.7306993  88.2225993  80.5621313  56.1066993  88.8045993  80.3801313
  56.9786993  87.9365993  79.7761313  56.6746993  88.2665993  80.4191313
  66.8116993  79.5525993  71.3941313  67.1896993  80.2295993  70.9941313
  65.9696993  79.7765993  71.4251313  66.7426993  79.6855993  71.3391313
  58.3246993  82.9985993  70.4771313  57.5196993  82.8215993  70.1921313
  58.2916993  83.8495993  70.6691313  58.2006993  83.0975993  70.4641313
  54.2546993  79.0655993  80.6271313  54.6946993  78.9625993  79.8811313
  54.7996993  78.7525993  81.2321313  54.3996993  79.0045993  80.6061313
  64.5066993  79.1515993  74.7691313  64.7136993  78.9505993  75.5931313
  65.2626993  79.4195993  74.4271313  64.6486993  79.1615993  74.8401313
  57.8016993  74.0505993  80.6741313  56.9756993  73.9015993  80.9111313
  57.7616993  74.0855993  79.8031313  57.6736993  74.0335993  80.5801313
  65.5286993  75.2345993  76.2431313  64.8146993  74.7635993  76.4141313
  65.3666993  75.5755993  75.4571313  65.3996993  75.2155993  76.1521313
  65.9716993  83.1785993  74.6231313  66.4476993  82.4495993  74.5751313
  65.1506993  82.8925993  74.5471313  65.9206993  83.0285993  74.6041313
  53.4306993  77.1925993  73.9341313  53.5566993  76.8635993  73.1361313
  52.6186993  76.9435993  74.1331313  53.3296993  77.1075993  73.8461313
  62.1876993  84.3455993  76.9781313  62.2636993  84.6865993  77.7771313
  62.3566993  83.4985993  77.0991313  62.2236993  84.2705993  77.1141313
  59.7096993  83.6195993  76.5431313  59.4116993  83.3045993  77.3001313
  60.4046993  84.0925993  76.7781313  59.7686993  83.6425993  76.6901313
  66.7416993  80.2915993  74.0651313  66.8446993  80.2335993  73.2011313
  67.4826993  79.9595993  74.3831313  66.8666993  80.2345993  73.9841313
  60.6616993  87.2565993  75.1721313  60.4566993  88.0895993  75.0131313
  59.8866993  86.8745993  75.2941313  60.5166993  87.3235993  75.1671313
  52.0356993  78.8135993  70.4671313  51.3636993  78.8275993  71.0231313
  52.1306993  77.9655993  70.2831313  51.9506993  78.6905993  70.5221313
  60.7166993  75.4275993  78.0571313  60.0166993  75.9455993  78.0011313
  60.7546993  75.0475993  77.2731313  60.6186993  75.4485993  77.9331313
  56.0236993  87.5185993  71.5811313  56.4646993  87.5985993  72.3291313
  55.2186993  87.3025993  71.8391313  55.9696993  87.4985993  71.7301313
  64.3146993  75.9435993  80.8571313  65.1696993  76.0425993  81.0021313
  63.9456993  76.4965993  81.4221313  64.3866993  76.0405993  80.9621313
  64.6186993  81.2235993  79.3481313  65.2846993  81.7645993  79.5081313
  64.2736993  81.5345993  78.6091313  64.6656993  81.3495993  79.2631313
  53.3526993  86.5885993  72.1821313  53.1086993  86.2815993  72.9621313
  53.3196993  85.8855993  71.6661313  53.3116993  86.4395993  72.2211313
  56.1716993  84.8335993  70.9251313  55.3536993  84.5655993  71.0651313
  56.1436993  85.6855993  71.1101313  56.0466993  84.9205993  70.9731313
  59.8746993  75.8945993  81.0581313  59.1376993  75.4405993  81.1711313
  60.4456993  75.4925993  81.5811313  59.8496993  75.7675993  81.1521313
  58.1736993  73.4755993  70.8891313  58.2516993  73.7225993  70.0561313
  57.4306993  73.8525993  71.1471313  58.0756993  73.5675993  70.8041313
  65.5236993  88.6415993  81.1011313  66.0506993  88.5585993  80.4101313
  65.1326993  87.8635993  81.1551313  65.5436993  88.5145993  81.0071313
  62.0376993  74.0855993  80.3091313  62.7076993  74.6295993  80.4361313
  61.5346993  74.5095993  79.7361313  62.0626993  74.2285993  80.2431313
  61.3966993  79.8935993  77.8021313  61.9476993  79.2865993  78.1021313
  60.9716993  80.1565993  78.5171313  61.4156993  79.8425993  77.9511313
  51.6446993  78.5435993  77.2881313  51.2766993  78.8455993  78.0191313
  52.1786993  77.9145993  77.5721313  51.6686993  78.4955993  77.4381313
  63.3666993  81.7245993  74.3641313  63.4346993  80.8745993  74.5451313
  62.5436993  81.8105993  74.0861313  63.2546993  81.6115993  74.3501313
  57.2856993  82.6155993  73.3021313  57.3856993  82.7545993  72.4471313
  58.1036993  82.5555993  73.5981313  57.4206993  82.6265993  73.2191313
  62.5206993  86.9445993  73.1041313  62.2696993  86.8165993  73.9301313
  62.2036993  86.2495993  72.6831313  62.4366993  86.8235993  73.1641313
  67.1646993  78.6025993  81.2241313  66.3316993  78.8525993  81.1521313
  67.1086993  77.7625993  81.4531313  67.0336993  78.5155993  81.2471313
  59.4066993  85.1525993  72.5341313  60.1236993  84.8055993  72.1781313
  59.3726993  85.9525993  72.1861313  59.5076993  85.2195993  72.4301313
  60.8156993  73.7935993  56.7728903  60.5706993  74.2815993  56.0928903
  61.6786993  73.7205993  56.6728903  60.9066993  73.8545993  56.6578903
  60.6246993  80.7095993  61.4438903  60.1006993  81.3055993  61.8068903
  61.0216993  80.3415993  62.1278903  60.6056993  80.7435993  61.5988903
  50.4936993  84.8495993  56.8998903  50.0526993  84.9675993  57.6428903
  50.2106993  84.0745993  56.6148903  50.3866993  84.7525993  56.9678903
  66.7686993  88.1505993  54.4148903  67.4696993  87.6315993  54.4108903
  66.1816993  87.7055993  53.9458903  66.7856993  88.0075993  54.3448903
  50.2366993  78.6415993  53.4068903  49.4586993  78.8035993  53.0468903
  50.2756993  77.7705993  53.4288903  50.1276993  78.5365993  53.3568903
  53.3756993  83.9045993  52.0788903  52.9836993  83.5335993  51.3928903
  53.2956993  83.3065993  52.7078903  53.3056993  83.7615993  52.0698903
  63.2956993  81.7765993  58.1198903  63.3756993  81.7805993  57.2508903
  62.7116993  81.1445993  58.2688903  63.2206993  81.6835993  58.0138903
  53.0026993  85.5455993  55.9788903  53.6106993  85.3755993  56.5818903
  52.2516993  85.4055993  56.3998903  52.9816993  85.4995993  56.1298903
  57.2846993  74.8805993  55.9278903  57.2146993  75.5575993  55.3818903
  58.0256993  74.4925993  55.6788903  57.3836993  74.9235993  55.8098903
  51.8936993  88.6365993  52.0558903  52.3606993  88.7205993  51.3238903
  52.3486993  88.0585993  52.5248903  52.0296993  88.5635993  52.0168903
  50.4336993  87.5845993  63.1548903  50.5626993  87.3045993  63.9708903
  49.8236993  87.0435993  62.8458903  50.3626993  87.4635993  63.2298903
  57.0076993  85.1095993  68.2218903  56.7716993  85.1065993  69.0618903
  56.2596993  84.9615993  67.7978903  56.8616993  85.0865993  68.2828903
  51.8796993  82.1055993  57.3568903  51.4176993  81.7135993  56.7298903
  52.5796993  81.5925993  57.4488903  51.9146993  81.9725993  57.2778903
  56.3876993  77.7155993  62.7038903  57.0656993  77.7335993  62.1548903
  56.3426993  76.8795993  62.9488903  56.4806993  77.5945993  62.6588903
  56.9896993  88.3015993  65.4848903  57.1276993  89.0615993  65.0778903
  57.7806993  87.9365993  65.5118903  57.1266993  88.3605993  65.4288903
  53.8806993  80.2055993  57.3798903  54.6976993  80.0185993  57.6228903
  53.4036993  79.5915993  57.7758903  53.9306993  80.0875993  57.4748903
  58.0846993  86.1865993  59.9898903  58.4326993  85.3875993  60.0198903
  58.7496993  86.6905993  59.7348903  58.2346993  86.1425993  59.9568903
  58.1416993  85.6355993  56.2008903  58.4726993  84.9915993  56.6868903
  58.3816993  85.4245993  55.3898903  58.2256993  85.5095993  56.1528903
  60.1096993  79.7665993  67.5398903  59.2616993  79.6675993  67.3618903
  60.1386993  80.5115993  67.9938903  59.9886993  79.8625993  67.5808903
  54.4776993  75.2995993  56.6458903  54.1816993  75.8005993  55.9958903
  55.3446993  75.3775993  56.5888903  54.5616993  75.3855993  56.5418903
  64.6676993  72.7265993  66.6538903  64.5096993  73.4955993  66.2718903
  63.8956993  72.5065993  66.9978903  64.5296993  72.8075993  66.6488903
  57.4566993  74.4415993  58.8688903  57.5296993  75.3015993  58.9978903
  57.4186993  74.3665993  58.0008903  57.4616993  74.5575993  58.7598903
  62.1296993  77.3675993  51.1678903  61.6796993  78.0485993  51.4748903
  62.2436993  76.8635993  51.8708903  62.0806993  77.3935993  51.3168903
  50.3356993  79.8665993  60.3698903  50.0796993  80.6975993  60.2948903
  49.6716993  79.4835993  60.7868903  50.1996993  79.9325993  60.4208903
  56.0856993  87.4205993  55.7498903  55.5066993  87.1455993  56.3418903
  56.7096993  86.8115993  55.7748903  56.0926993  87.2905993  55.8408903
  53.3646993  74.6835993  60.8608903  52.8436993  74.0555993  60.5528903
  53.9556993  74.2465993  61.3318903  53.3756993  74.5255993  60.8848903
  56.6706993  76.8165993  70.1588903  56.7876993  76.3625993  69.4228903
  56.9586993  77.6145993  69.9558903  56.7306993  76.8675993  70.0198903
  51.7906993  88.2465993  56.2008903  52.4466993  87.6715993  56.2158903
  52.1796993  88.9955993  55.9798903  51.9456993  88.2715993  56.1708903
  67.5236993  77.3405993  57.4628903  67.1776993  78.0185993  57.8888903
  66.8876993  76.7425993  57.4788903  67.3786993  77.3525993  57.5278903
  52.4036993  76.4135993  69.1428903  51.6256993  76.0235993  69.0708903
  52.8946993  76.0015993  68.5518903  52.3606993  76.2945993  69.0448903
  52.6086993  86.7335993  59.7008903  53.0316993  86.3775993  59.0268903
  52.9326993  86.3115993  60.3928903  52.7186993  86.6185993  59.7038903
  59.0526993  74.0565993  68.3108903  59.2306993  73.2475993  68.0358903
  58.9096993  74.4975993  67.5718903  59.0576993  74.0025993  68.1608903
  59.6466993  78.9825993  57.0838903  59.9336993  78.7505993  56.2938903
  60.3786993  79.0615993  57.5528903  59.7966993  78.9595993  57.0368903
  60.3686993  79.3215993  52.2048903  60.6496993  80.1095993  52.4538903
  59.5926993  79.4865993  51.8418903  60.2956993  79.4625993  52.1878903
  67.1986993  75.6635993  62.8318903  67.9556993  75.7355993  62.4038903
  67.2616993  74.8905993  63.2308903  67.3196993  75.5605993  62.8268903
  49.7516993  76.9615993  66.7288903  49.7476993  77.5485993  67.3748903
  50.3456993  77.2735993  66.1718903  49.8386993  77.0945993  66.7418903
  62.0896993  87.2955993  67.2708903  62.0556993  87.6775993  68.0548903
  62.9436993  87.2535993  67.0998903  62.2106993  87.3455993  67.3618903
  59.2276993  87.4925993  52.0208903  59.0466993  88.0375993  52.6778903
  59.9936993  87.7825993  51.7198903  59.3136993  87.6165993  52.0738903
  62.7346993  75.3885993  53.0748903  63.2746993  74.7065993  53.1508903
  62.7966993  75.7865993  53.8488903  62.8236993  75.3465993  53.2008903
  50.6886993  76.5565993  55.6438903  50.5746993  75.6925993  55.6748903
  50.2136993  76.8505993  56.3138903  50.6016993  76.4725993  55.7468903
  52.8306993  88.9665993  63.8588903  52.1326993  88.4585993  63.9848903
  53.0906993  88.7615993  63.0508903  52.7656993  88.8615993  63.7578903
  59.9926993  77.7645993  54.3888903  59.4846993  77.1025993  54.1348903
  60.0446993  78.2685993  53.6788903  59.9256993  77.7415993  54.2468903
  59.9926993  74.7055993  54.2798903  59.5376993  74.3035993  53.6538903
  60.7656993  74.8605993  53.9048903  60.0396993  74.6695993  54.1318903
  58.5906993  77.0725993  58.8018903  58.6646993  77.6405993  58.1438903
  58.7116993  77.5645993  59.5118903  58.6186993  77.2295993  58.8098903
  63.8156993  86.9075993  57.2138903  64.5166993  86.4255993  57.4028903
  63.1556993  86.3385993  57.2588903  63.8216993  86.7525993  57.2478903
  54.1916993  87.8175993  66.4258903  55.0326993  87.8805993  66.2038903
  54.1546993  88.2145993  67.2018903  54.3106993  87.8855993  66.5078903
  53.1986993  72.8955993  57.1498903  53.7346993  73.5835993  57.1398903
  53.2016993  72.6215993  56.3218903  53.2776993  72.9565993  57.0258903
  56.1546993  83.3285993  61.1748903  56.3266993  83.1185993  62.0038903
  55.4996993  82.7945993  60.9588903  56.0836993  83.2185993  61.2658903
  62.3826993  77.2425993  64.6898903  62.2876993  77.5615993  65.4958903
  61.7896993  76.6035993  64.6518903  62.2806993  77.1945993  64.8038903
  56.9046993  83.2665993  63.7648903  56.9576993  84.1135993  63.9668903
  56.6196993  82.8965993  64.5018903  56.8706993  83.3365993  63.9028903
  63.0816993  83.9615993  62.8948903  62.5676993  83.5495993  63.4658903
  62.9556993  84.8055993  63.0758903  62.9876993  84.0255993  63.0058903
  63.6386993  73.1865993  57.5258903  63.6876993  72.8685993  58.3368903
  63.9616993  72.5425993  57.0328903  63.6936993  73.0445993  57.5728903
  49.7256993  87.6375993  69.9758903  50.4816993  87.9865993  70.2338903
  49.9026993  86.7845993  69.9188903  49.8636993  87.5625993  70.0058903
  66.1026993  77.4225993  65.8338903  66.8746993  77.1975993  66.1708903
  65.6276993  77.6395993  66.5338903  66.1466993  77.4215993  65.9868903
  53.6466993  76.7055993  58.8038903  53.9186993  76.2755993  58.0958903
  53.4706993  76.0695993  59.3748903  53.6606993  76.5485993  58.7838903
  66.3346993  84.4005993  53.0218903  66.4536993  84.1135993  53.8368903
  67.1416993  84.4215993  52.6918903  66.4706993  84.3615993  53.0938903
  53.4706993  84.1325993  58.3528903  54.3216993  84.0525993  58.1798903
  53.1136993  83.4505993  57.9408903  53.5436993  84.0195993  58.2658903
  51.7876993  77.8075993  61.8858903  52.6306993  78.0275993  61.8428903
  51.3986993  78.3805993  61.3548903  51.8546993  77.9245993  61.8008903
  64.2296993  80.9375993  52.6068903  64.0096993  81.6685993  52.1848903
  63.7816993  80.9885993  53.3538903  64.1306993  81.0525993  52.6548903
  55.8386993  84.1395993  56.5878903  56.5516993  84.6345993  56.6778903
  56.0606993  83.5725993  55.9618903  55.9766993  84.1285993  56.5088903
  68.4166993  75.7985993  52.0598903  67.7546993  75.2305993  52.0828903
  68.2236993  76.3105993  51.3798903  68.2906993  75.7905993  51.9628903
  49.9946993  85.7825993  59.9078903  49.3276993  86.2705993  60.1838903
  50.6746993  86.3275993  59.9368903  49.9966993  85.9345993  59.9528903
  57.6416993  79.4925993  70.0038903  57.1576993  80.0695993  70.4458903
  57.6136993  79.7875993  69.1828903  57.5656993  79.6215993  69.9478903
  68.7396993  80.1765993  64.6158903  68.9546993  79.3765993  64.3398903
  67.8896993  80.2365993  64.4268903  68.6456993  80.0675993  64.5468903
  50.0606993  82.4665993  55.0108903  49.8756993  81.6275993  55.1628903
  50.7196993  82.4305993  54.4408903  50.1306993  82.3375993  54.9488903
  66.4186993  75.3565993  54.3388903  67.1646993  74.9495993  54.5378903
  66.6816993  76.0715993  53.9138903  66.5676993  75.4025993  54.3058903
  60.3616993  87.8425993  58.9148903  59.8386993  88.4765993  58.6218903
  60.6716993  87.4785993  58.1858903  60.3296993  87.8825993  58.7638903
  50.2326993  86.6305993  54.5858903  50.7846993  87.1995993  54.9498903
  50.0006993  86.1155993  55.2508903  50.2796993  86.6385993  54.7378903
  54.4366993  85.6305993  61.6748903  54.9036993  85.9195993  62.3528903
  55.0086993  85.1525993  61.2208903  54.5906993  85.6025993  61.7078903
  62.8726993  77.6445993  59.4118903  63.2166993  77.7965993  60.1988903
  62.4196993  76.9065993  59.5248903  62.8566993  77.5575993  59.5448903
  50.0626993  85.0795993  52.2138903  50.8186993  84.6475993  52.2718903
  50.0776993  85.6115993  52.9048903  50.1766993  85.0945993  52.3248903
  51.0026993  83.3005993  60.2188903  51.4336993  83.1715993  59.4718903
  50.7976993  84.1485993  60.1928903  51.0356993  83.4065993  60.1048903
  57.3486993  76.8645993  53.8688903  57.3466993  76.7475993  53.0038903
  57.1676993  77.7125993  53.9608903  57.3216993  76.9725993  53.7548903
  55.0866993  86.8165993  58.5008903  55.2126993  87.6595993  58.6878903
  55.7546993  86.4175993  58.8968903  55.2046993  86.8825993  58.5868903
  53.2166993  80.2995993  68.3628903  52.6806993  79.7935993  68.8308903
  53.2366993  79.9095993  67.5828903  53.1396993  80.1665993  68.3168903
  53.7016993  79.6965993  53.5028903  53.5736993  79.2485993  54.2408903
  53.1196993  79.3545993  52.9508903  53.5966993  79.5795993  53.5308903
  53.8686993  81.5265993  60.1018903  53.0876993  81.4675993  59.7188903
  53.9406993  80.7745993  60.5388903  53.7636993  81.4075993  60.1098903
  54.2986993  81.2635993  63.5698903  54.3236993  80.5885993  63.0188903
  53.6526993  81.7595993  63.2578903  54.2076993  81.2365993  63.4428903
  64.1936993  78.9765993  61.9658903  63.5316993  79.3045993  62.4288903
  64.3806993  79.6105993  61.3968903  64.1236993  79.1185993  61.9498903
  60.8386993  74.8825993  65.3948903  60.9876993  74.0575993  65.1518903
  61.2176993  74.9375993  66.1788903  60.9166993  74.7685993  65.4748903
  62.3866993  76.9455993  55.4768903  62.8766993  77.6625993  55.3998903
  61.5966993  77.2065993  55.2138903  62.3426993  77.0895993  55.4268903
  52.0976993  82.6185993  69.1288903  52.0606993  83.1195993  68.4148903
  52.4286993  81.8665993  68.8338903  52.1406993  82.5805993  68.9798903
  63.7006993  84.8235993  67.3868903  64.1846993  85.5415993  67.4848903
  64.0946993  84.3965993  66.7358903  63.8306993  84.8665993  67.3048903
  57.9966993  87.6685993  68.5638903  58.3506993  87.4905993  69.3408903
  57.5606993  86.9395993  68.3648903  57.9846993  87.5345993  68.6498903
  58.9686993  78.4155993  61.2018903  59.4486993  79.1145993  61.4098903
  59.3416993  77.7685993  61.6528903  59.0946993  78.4235993  61.2988903
  61.1576993  81.5845993  53.4758903  61.1496993  82.3065993  52.9858903
  60.5186993  81.7195993  54.0528903  61.0626993  81.7115993  53.4888903
  66.1296993  85.4545993  57.4568903  66.4856993  85.1045993  58.1718903
  66.1216993  84.7935993  56.8868903  66.1816993  85.3045993  57.4778903
  62.1746993  88.5205993  61.3008903  61.5716993  88.2245993  60.7438903
  62.7196993  88.9725993  60.7918903  62.1656993  88.5435993  61.1428903
  62.1876993  85.3715993  60.7008903  61.3906993  85.5955993  60.9748903
  62.4456993  84.7775993  61.2858903  62.1076993  85.3165993  60.8278903
  55.7506993  73.9265993  53.1368903  55.8476993  73.8195993  53.9978903
  55.0426993  74.4325993  53.0718903  55.6606993  73.9855993  53.2548903
  65.4476993  83.3695993  65.5468903  65.5026993  83.4945993  64.6848903
  66.2006993  83.6895993  65.8488903  65.5666993  83.4345993  65.4638903
  66.4796993  73.6675993  68.5338903  65.8426993  73.2675993  68.0918903
  66.5056993  73.2365993  69.2918903  66.3896993  73.5455993  68.5798903
  52.8726993  82.2335993  54.3798903  53.1966993  81.4545993  54.1578903
  53.5186993  82.6015993  54.8348903  53.0156993  82.1725993  54.4138903
  61.1786993  83.1755993  65.1468903  61.0236993  83.7855993  65.7508903
  61.7126993  82.6175993  65.5528903  61.2346993  83.1835993  65.2958903
  49.8696993  73.8945993  55.3478903  49.9986993  73.1865993  54.8558903
  49.5026993  73.5765993  56.0728903  49.8346993  73.7425993  55.3828903
  59.5626993  81.5755993  55.8048903  59.6216993  82.2255993  56.3838903
  59.3736993  80.8795993  56.2958903  59.5436993  81.5685993  55.9628903
  64.7886993  85.9045993  61.6738903  64.3096993  86.2025993  61.0078903
  64.4326993  85.1285993  61.8518903  64.6656993  85.8335993  61.6018903
  54.0586993  76.0925993  52.3168903  53.5476993  76.1455993  51.6108903
  54.8426993  76.3325993  52.0208903  54.0986993  76.1355993  52.1688903
  58.7856993  83.6225993  60.2358903  57.9386993  83.4285993  60.3168903
  59.1096993  83.4575993  61.0288903  58.7076993  83.5695993  60.3648903
  52.6336993  83.3155993  62.5518903  53.3556993  83.8035993  62.5148903
  52.3636993  83.2855993  61.7228903  52.7006993  83.3835993  62.4238903
  55.8636993  78.4865993  59.2868903  56.7096993  78.2965993  59.3848903
  55.4936993  77.7095993  59.1488903  55.9336993  78.3435993  59.2808903
  50.6846993  79.8245993  55.9418903  51.1736993  79.5325993  56.6028903
  50.8136993  79.2315993  55.3148903  50.7756993  79.6935993  55.9468903
  65.7196993  82.8465993  62.7928903  65.7126993  82.0705993  63.1908903
  64.8786993  83.0805993  62.7858903  65.5946993  82.7665993  62.8508903
  55.2096993  81.2585993  51.4278903  54.5996993  80.8535993  51.9018903
  54.8236993  81.3765993  50.6548903  55.0626993  81.2155993  51.3838903
  52.0286993  84.3675993  66.8298903  51.6076993  83.8495993  66.2688903
  51.6766993  85.1535993  66.6868903  51.9146993  84.4075993  66.7258903
  66.9756993  82.9175993  60.2298903  66.6896993  83.3185993  60.9498903
  67.8356993  82.8555993  60.3568903  67.0606993  82.9675993  60.3548903
  56.6646993  79.7195993  54.1378903  56.9366993  80.5455993  54.2048903
  55.8016993  79.7945993  54.0418903  56.5776993  79.8525993  54.1328903
  64.6376993  76.8415993  68.7698903  64.1126993  77.3005993  69.2938903
  64.2766993  76.0465993  68.7638903  64.5066993  76.7915993  68.8458903
  50.1446993  75.6895993  60.6738903  50.1886993  76.0335993  59.8728903
  50.8996993  75.9265993  61.0408903  50.2626993  75.7755993  60.6098903
  68.1066993  88.5505993  60.7588903  68.3966993  88.8075993  59.9778903
  68.8016993  88.6465993  61.2778903  68.2526993  88.6025993  60.7198903
  63.1296993  80.4105993  68.8458903  63.2026993  80.5145993  69.7088903
  62.4956993  80.9685993  68.6248903  63.0466993  80.5085993  68.9408903
  65.3976993  80.7295993  67.2108903  65.7166993  81.5155993  67.4138903
  65.0276993  80.4595993  67.9538903  65.3906993  80.8055993  67.3508903
  64.7116993  87.1535993  52.7408903  65.0456993  86.3475993  52.7758903
  63.9566993  87.0815993  53.1708903  64.6496993  87.0235993  52.8098903
  65.1936993  78.9875993  58.3998903  64.4486993  78.6645993  58.7178903
  65.1956993  79.8135993  58.6798903  65.0836993  79.0615993  58.4878903
  68.0956993  81.2715993  69.9458903  68.0436993  80.9305993  69.1448903
  68.8326993  81.7385993  69.9238903  68.1966993  81.2905993  69.8238903
  67.6336993  84.9475993  66.1518903  68.2616993  84.3985993  65.8958903
  67.5726993  85.5125993  65.4898903  67.7176993  84.9505993  66.0158903
  62.0856993  85.0285993  52.1438903  62.7696993  84.5145993  51.9748903
  61.6686993  85.0745993  51.3788903  62.1246993  84.9595993  52.0058903
  56.7676993  86.1785993  63.4478903  56.4696993  86.7705993  64.0148903
  56.8226993  86.6205993  62.6988903  56.7316993  86.3315993  63.4208903
  54.7466993  85.1285993  66.8458903  53.9406993  84.8385993  67.0128903
  54.6576993  85.9965993  66.8518903  54.6146993  85.2135993  66.8708903
  64.1056993  75.3175993  65.8608903  64.8496993  75.7695993  65.7978903
  63.5396993  75.7875993  65.3918903  64.1326993  75.4545993  65.7828903
  59.2836993  82.6015993  62.9388903  59.7596993  82.9755993  63.5668903
  58.4606993  82.7355993  63.1978903  59.2326993  82.6765993  63.0698903
  55.9936993  78.2045993  65.6798903  56.1546993  77.4605993  66.1068903
  55.9486993  77.9555993  64.8448903  56.0106993  78.0575993  65.6198903
  65.3906993  73.2975993  63.5308903  65.1106993  74.1225993  63.4868903
  66.1066993  73.3505993  64.0268903  65.4556993  73.4275993  63.5978903
  57.7456993  74.0125993  65.5598903  58.4506993  74.3325993  65.1578903
  57.9866993  73.2055993  65.7868903  57.8846993  73.9405993  65.5338903
  56.7306993  88.2225993  61.5558903  56.1066993  88.8045993  61.3738903
  56.9786993  87.9365993  60.7698903  56.6746993  88.2665993  61.4128903
  61.0396993  84.8565993  68.5448903  61.7966993  85.1425993  68.2188903
  60.4926993  84.9085993  67.8668903  61.0706993  84.9065993  68.3958903
  64.9486993  87.4065993  67.0488903  65.2946993  87.6765993  67.8028903
  65.2426993  87.9885993  66.4688903  65.0436993  87.5325993  67.0748903
  66.8116993  79.5525993  52.3878903  67.1896993  80.2295993  51.9878903
  65.9696993  79.7765993  52.4188903  66.7426993  79.6855993  52.3328903
  58.3246993  82.9985993  51.4708903  57.5196993  82.8215993  51.1858903
  58.2916993  83.8495993  51.6628903  58.2006993  83.0975993  51.4578903
  54.2546993  79.0655993  61.6208903  54.6946993  78.9625993  60.8748903
  54.7996993  78.7525993  62.2258903  54.3996993  79.0045993  61.5998903
  62.2706993  78.1675993  67.2128903  61.6226993  78.6375993  67.5608903
  62.8356993  78.0785993  67.8718903  62.2586993  78.2235993  67.3618903
  61.9586993  79.7045993  63.5108903  62.2606993  80.1245993  64.2138903
  61.9946993  78.8645993  63.7428903  62.0086993  79.6425993  63.6488903
  64.5066993  79.1515993  55.7628903  64.7136993  78.9505993  56.5868903
  65.2626993  79.4195993  55.4208903  64.6486993  79.1615993  55.8338903
  57.8016993  74.0505993  61.6678903  56.9756993  73.9015993  61.9048903
  57.7616993  74.0855993  60.7968903  57.6736993  74.0335993  61.5738903
  65.5286993  75.2345993  57.2368903  64.8146993  74.7635993  57.4078903
  65.3666993  75.5755993  56.4508903  65.3996993  75.2155993  57.1458903
  65.9716993  83.1785993  55.6168903  66.4476993  82.4495993  55.5688903
  65.1506993  82.8925993  55.5408903  65.9206993  83.0285993  55.5978903
  59.4426993  85.0905993  66.4558903  58.6476993  85.0265993  66.8068903
  59.5136993  85.9375993  66.2608903  59.3356993  85.2055993  66.4788903
  50.3666993  74.4485993  67.7028903  50.2266993  75.2435993  67.3718903
  49.5806993  74.2055993  67.9918903  50.2296993  74.5305993  67.6968903
  53.4306993  77.1925993  54.9278903  53.5566993  76.8635993  54.1298903
  52.6186993  76.9435993  55.1268903  53.3296993  77.1075993  54.8398903
  62.1876993  84.3455993  57.9718903  62.2636993  84.6865993  58.7708903
  62.3566993  83.4985993  58.0928903  62.2236993  84.2705993  58.1078903
  59.7096993  83.6195993  57.5368903  59.4116993  83.3045993  58.2938903
  60.4046993  84.0925993  57.7718903  59.7686993  83.6425993  57.6838903
  59.9316993  87.7375993  65.5638903  60.6186993  87.6235993  66.0888903
  60.0656993  88.5285993  65.2198903  60.0526993  87.8375993  65.5908903
  68.1076993  80.3465993  67.3748903  67.2526993  80.2245993  67.5008903
  68.2606993  79.9515993  66.6118903  68.0036993  80.2695993  67.2808903
  62.6206993  81.0115993  65.9508903  62.3656993  80.2925993  66.3728903
  63.4416993  81.1275993  66.2208903  62.7046993  80.9225993  66.0528903
  60.5546993  82.2015993  69.1378903  60.8776993  82.8875993  68.7058903
  59.8506993  82.5245993  69.5398903  60.4976993  82.3505993  69.1328903
  60.3396993  85.6655993  62.9968903  59.6456993  86.0675993  63.3398903
  61.0166993  86.0985993  63.3358903  60.3366993  85.7885993  63.0978903
  65.7166993  88.2585993  69.5768903  66.4926993  87.8685993  69.6598903
  65.2476993  87.9225993  70.2318903  65.7616993  88.1515993  69.6858903
  53.4076993  79.2035993  65.3438903  53.7826993  79.8225993  64.8568903
  54.0816993  78.7295993  65.6288903  53.5626993  79.2255993  65.3138903
  51.1826993  77.6515993  64.6188903  51.2596993  77.4825993  63.7658903
  51.9286993  78.0575993  64.8158903  51.3036993  77.6865993  64.5218903
  66.7416993  80.2915993  55.0588903  66.8446993  80.2335993  54.1948903
  67.4826993  79.9595993  55.3768903  66.8666993  80.2345993  54.9778903
  53.7366993  75.0615993  67.0298903  53.6556993  74.2175993  67.2358903
  53.4226993  75.1055993  66.2168903  53.6786993  74.9435993  66.9398903
  60.6616993  87.2565993  56.1658903  60.4566993  88.0895993  56.0068903
  59.8866993  86.8745993  56.2878903  60.5166993  87.3235993  56.1608903
  65.8436993  80.4375993  64.4148903  65.8416993  79.5745993  64.5388903
  65.9106993  80.7615993  65.2218903  65.8536993  80.3575993  64.5518903
  50.5796993  82.8775993  64.8428903  50.8996993  83.0965993  64.0618903
  50.4796993  82.0125993  64.7878903  50.6116993  82.7825993  64.7198903
  52.0356993  78.8135993  51.4608903  51.3636993  78.8275993  52.0168903
  52.1306993  77.9655993  51.2768903  51.9506993  78.6905993  51.5158903
  61.7226993  75.2375993  68.1968903  61.8146993  75.9495993  68.6908903
  61.0856993  74.7925993  68.5938903  61.6416993  75.2765993  68.3288903
  60.7166993  75.4275993  59.0508903  60.0166993  75.9455993  58.9948903
  60.7546993  75.0475993  58.2668903  60.6186993  75.4485993  58.9268903
  56.0236993  87.5185993  52.5748903  56.4646993  87.5985993  53.3228903
  55.2186993  87.3025993  52.8328903  55.9696993  87.4985993  52.7238903
  64.3146993  75.9435993  61.8508903  65.1696993  76.0425993  61.9958903
  63.9456993  76.4965993  62.4158903  64.3866993  76.0405993  61.9558903
  55.3426993  82.1695993  66.2278903  54.9466993  82.9435993  66.3028903
  54.9366993  81.7965993  65.5518903  55.2246993  82.2285993  66.1388903
  64.6186993  81.2235993  60.3418903  65.2846993  81.7645993  60.5018903
  64.2736993  81.5345993  59.6028903  64.6656993  81.3495993  60.2568903
  53.3526993  86.5885993  53.1758903  53.1086993  86.2815993  53.9558903
  53.3196993  85.8855993  52.6598903  53.3116993  86.4395993  53.2148903
  56.1716993  84.8335993  51.9188903  55.3536993  84.5655993  52.0588903
  56.1436993  85.6855993  52.1038903  56.0466993  84.9205993  51.9668903
  55.7716993  75.1465993  63.6778903  54.9076993  75.2305993  63.7578903
  55.9916993  74.6325993  64.3468903  55.6766993  75.0835993  63.7888903
  67.7896993  73.7815993  65.0068903  67.7376993  73.7375993  65.8768903
  68.4766993  73.2785993  64.8168903  67.8836993  73.7015993  65.1068903
  59.8746993  75.8945993  62.0518903  59.1376993  75.4405993  62.1648903
  60.4456993  75.4925993  62.5748903  59.8496993  75.7675993  62.1458903
  62.6066993  86.7425993  63.8398903  62.8126993  87.0435993  64.6318903
  62.5456993  87.4645993  63.3548903  62.6276993  86.8935993  63.8848903
  57.3776993  80.2235993  67.2558903  57.0556993  79.6475993  66.6858903
  57.0186993  80.9785993  67.0098903  57.2776993  80.2495993  67.1358903
  58.1736993  73.4755993  51.8828903  58.2516993  73.7225993  51.0498903
  57.4306993  73.8525993  52.1408903  58.0756993  73.5675993  51.7978903
  67.4186993  85.3815993  63.2978903  67.3866993  84.5195993  63.1628903
  66.7256993  85.6835993  62.8638903  67.3116993  85.2985993  63.2138903
  65.5236993  88.6415993  62.0948903  66.0506993  88.5585993  61.4038903
  65.1326993  87.8635993  62.1488903  65.5436993  88.5145993  62.0008903
  52.9916993  75.2295993  64.3258903  52.6486993  74.4625993  64.0918903
  52.2966993  75.7535993  64.3898903  52.8386993  75.1935993  64.3008903
  62.0376993  74.0855993  61.3028903  62.7076993  74.6295993  61.4298903
  61.5346993  74.5095993  60.7298903  62.0626993  74.2285993  61.2368903
  61.3966993  79.8935993  58.7958903  61.9476993  79.2865993  59.0958903
  60.9716993  80.1565993  59.5108903  61.4156993  79.8425993  58.9448903
  51.6446993  78.5435993  58.2818903  51.2766993  78.8455993  59.0128903
  52.1786993  77.9145993  58.5658903  51.6686993  78.4955993  58.4318903
  51.3326993  86.9515993  65.7928903  50.7586993  87.3675993  66.3018903
  52.0656993  87.4165993  65.8878903  51.3566993  87.0815993  65.8818903
  63.3666993  81.7245993  55.3578903  63.4346993  80.8745993  55.5388903
  62.5436993  81.8105993  55.0798903  63.2546993  81.6115993  55.3438903
  57.2856993  82.6155993  54.2958903  57.3856993  82.7545993  53.4408903
  58.1036993  82.5555993  54.5918903  57.4206993  82.6265993  54.2128903
  66.6406993  83.0975993  68.5088903  67.2746993  82.9275993  69.0828903
  67.0576993  83.5005993  67.8568903  66.7956993  83.1325993  68.4978903
  62.5206993  86.9445993  54.0978903  62.2696993  86.8165993  54.9238903
  62.2036993  86.2495993  53.6768903  62.4366993  86.8235993  54.1578903
  67.2656993  77.6615993  69.2468903  67.0696993  78.3055993  69.8018903
  66.5436993  77.1715993  69.2388903  67.1306993  77.6845993  69.3278903
  67.1646993  78.6025993  62.2178903  66.3316993  78.8525993  62.1458903
  67.1086993  77.7625993  62.4468903  67.0336993  78.5155993  62.2408903
  56.4246993  75.5905993  67.4118903  56.6586993  75.0145993  66.7988903
  55.5826993  75.4095993  67.5528903  56.3346993  75.4785993  67.3418903
  64.0516993  83.2085993  69.8638903  64.9226993  83.1725993  69.8278903
  63.8326993  83.6285993  69.1318903  64.1486993  83.2645993  69.7508903
  59.4066993  85.1525993  53.5278903  60.1236993  84.8055993  53.1718903
  59.3726993  85.9525993  53.1798903  59.5076993  85.2195993  53.4238903
  60.6246993  80.7095993  42.4376493  60.1006993  81.3055993  42.8006493
  61.0216993  80.3415993  43.1216493  60.6056993  80.7435993  42.5926493
  50.4936993  84.8495993  37.8936493  50.0526993  84.9675993  38.6366493
  50.2106993  84.0745993  37.6086493  50.3866993  84.7525993  37.9616493
  66.7686993  88.1505993  35.4086493  67.4696993  87.6315993  35.4046493
  66.1816993  87.7055993  34.9396493  66.7856993  88.0075993  35.3386493
  50.2366993  78.6415993  34.4006493  49.4586993  78.8035993  34.0406493
  50.2756993  77.7705993  34.4226493  50.1276993  78.5365993  34.3506493
  53.3756993  83.9045993  33.0726493  52.9836993  83.5335993  32.3866493
  53.2956993  83.3065993  33.7016493  53.3056993  83.7615993  33.0636493
  63.2956993  81.7765993  39.1136493  63.3756993  81.7805993  38.2446493
  62.7116993  81.1445993  39.2626493  63.2206993  81.6835993  39.0076493
  53.0026993  85.5455993  36.9726493  53.6106993  85.3755993  37.5756493
  52.2516993  85.4055993  37.3936493  52.9816993  85.4995993  37.1236493
  51.8936993  88.6365993  33.0496493  52.3606993  88.7205993  32.3176493
  52.3486993  88.0585993  33.5186493  52.0296993  88.5635993  33.0106493
  50.4336993  87.5845993  44.1486493  50.5626993  87.3045993  44.9646493
  49.8236993  87.0435993  43.8396493  50.3626993  87.4635993  44.2236493
  57.0076993  85.1095993  49.2156493  56.7716993  85.1065993  50.0556493
  56.2596993  84.9615993  48.7916493  56.8616993  85.0865993  49.2766493
  51.8796993  82.1055993  38.3506493  51.4176993  81.7135993  37.7236493
  52.5796993  81.5925993  38.4426493  51.9146993  81.9725993  38.2716493
  56.3876993  77.7155993  43.6976493  57.0656993  77.7335993  43.1486493
  56.3426993  76.8795993  43.9426493  56.4806993  77.5945993  43.6526493
  56.9896993  88.3015993  46.4786493  57.1276993  89.0615993  46.0716493
  57.7806993  87.9365993  46.5056493  57.1266993  88.3605993  46.4226493
  53.8806993  80.2055993  38.3736493  54.6976993  80.0185993  38.6166493
  53.4036993  79.5915993  38.7696493  53.9306993  80.0875993  38.4686493
  58.0846993  86.1865993  40.9836493  58.4326993  85.3875993  41.0136493
  58.7496993  86.6905993  40.7286493  58.2346993  86.1425993  40.9506493
  58.1416993  85.6355993  37.1946493  58.4726993  84.9915993  37.6806493
  58.3816993  85.4245993  36.3836493  58.2256993  85.5095993  37.1466493
  60.1096993  79.7665993  48.5336493  59.2616993  79.6675993  48.3556493
  60.1386993  80.5115993  48.9876493  59.9886993  79.8625993  48.5746493
  50.3356993  79.8665993  41.3636493  50.0796993  80.6975993  41.2886493
  49.6716993  79.4835993  41.7806493  50.1996993  79.9325993  41.4146493
  56.0856993  87.4205993  36.7436493  55.5066993  87.1455993  37.3356493
  56.7096993  86.8115993  36.7686493  56.0926993  87.2905993  36.8346493
  56.6706993  76.8165993  51.1526493  56.7876993  76.3625993  50.4166493
  56.9586993  77.6145993  50.9496493  56.7306993  76.8675993  51.0136493
  51.7906993  88.2465993  37.1946493  52.4466993  87.6715993  37.2096493
  52.1796993  88.9955993  36.9736493  51.9456993  88.2715993  37.1646493
  67.5236993  77.3405993  38.4566493  67.1776993  78.0185993  38.8826493
  66.8876993  76.7425993  38.4726493  67.3786993  77.3525993  38.5216493
  52.6086993  86.7335993  40.6946493  53.0316993  86.3775993  40.0206493
  52.9326993  86.3115993  41.3866493  52.7186993  86.6185993  40.6976493
  67.1986993  75.6635993  43.8256493  67.9556993  75.7355993  43.3976493
  67.2616993  74.8905993  44.2246493  67.3196993  75.5605993  43.8206493
  62.0896993  87.2955993  48.2646493  62.0556993  87.6775993  49.0486493
  62.9436993  87.2535993  48.0936493  62.2106993  87.3455993  48.3556493
  59.2276993  87.4925993  33.0146493  59.0466993  88.0375993  33.6716493
  59.9936993  87.7825993  32.7136493  59.3136993  87.6165993  33.0676493
  52.8306993  88.9665993  44.8526493  52.1326993  88.4585993  44.9786493
  53.0906993  88.7615993  44.0446493  52.7656993  88.8615993  44.7516493
  63.8156993  86.9075993  38.2076493  64.5166993  86.4255993  38.3966493
  63.1556993  86.3385993  38.2526493  63.8216993  86.7525993  38.2416493
  54.1916993  87.8175993  47.4196493  55.0326993  87.8805993  47.1976493
  54.1546993  88.2145993  48.1956493  54.3106993  87.8855993  47.5016493
  56.1546993  83.3285993  42.1686493  56.3266993  83.1185993  42.9976493
  55.4996993  82.7945993  41.9526493  56.0836993  83.2185993  42.2596493
  62.3826993  77.2425993  45.6836493  62.2876993  77.5615993  46.4896493
  61.7896993  76.6035993  45.6456493  62.2806993  77.1945993  45.7976493
  56.9046993  83.2665993  44.7586493  56.9576993  84.1135993  44.9606493
  56.6196993  82.8965993  45.4956493  56.8706993  83.3365993  44.8966493
  63.0816993  83.9615993  43.8886493  62.5676993  83.5495993  44.4596493
  62.9556993  84.8055993  44.0696493  62.9876993  84.0255993  43.9996493
  49.7256993  87.6375993  50.9696493  50.4816993  87.9865993  51.2276493
  49.9026993  86.7845993  50.9126493  49.8636993  87.5625993  50.9996493
  66.1026993  77.4225993  46.8276493  66.8746993  77.1975993  47.1646493
  65.6276993  77.6395993  47.5276493  66.1466993  77.4215993  46.9806493
  66.3346993  84.4005993  34.0156493  66.4536993  84.1135993  34.8306493
  67.1416993  84.4215993  33.6856493  66.4706993  84.3615993  34.0876493
  53.4706993  84.1325993  39.3466493  54.3216993  84.0525993  39.1736493
  53.1136993  83.4505993  38.9346493  53.5436993  84.0195993  39.2596493
  51.7876993  77.8075993  42.8796493  52.6306993  78.0275993  42.8366493
  51.3986993  78.3805993  42.3486493  51.8546993  77.9245993  42.7946493
  64.2296993  80.9375993  33.6006493  64.0096993  81.6685993  33.1786493
  63.7816993  80.9885993  34.3476493  64.1306993  81.0525993  33.6486493
  55.8386993  84.1395993  37.5816493  56.5516993  84.6345993  37.6716493
  56.0606993  83.5725993  36.9556493  55.9766993  84.1285993  37.5026493
  49.9946993  85.7825993  40.9016493  49.3276993  86.2705993  41.1776493
  50.6746993  86.3275993  40.9306493  49.9966993  85.9345993  40.9466493
  57.6416993  79.4925993  50.9976493  57.1576993  80.0695993  51.4396493
  57.6136993  79.7875993  50.1766493  57.5656993  79.6215993  50.9416493
  68.7396993  80.1765993  45.6096493  68.9546993  79.3765993  45.3336493
  67.8896993  80.2365993  45.4206493  68.6456993  80.0675993  45.5406493
  50.0606993  82.4665993  36.0046493  49.8756993  81.6275993  36.1566493
  50.7196993  82.4305993  35.4346493  50.1306993  82.3375993  35.9426493
  60.3616993  87.8425993  39.9086493  59.8386993  88.4765993  39.6156493
  60.6716993  87.4785993  39.1796493  60.3296993  87.8825993  39.7576493
  50.2326993  86.6305993  35.5796493  50.7846993  87.1995993  35.9436493
  50.0006993  86.1155993  36.2446493  50.2796993  86.6385993  35.7316493
  54.4366993  85.6305993  42.6686493  54.9036993  85.9195993  43.3466493
  55.0086993  85.1525993  42.2146493  54.5906993  85.6025993  42.7016493
  62.8726993  77.6445993  40.4056493  63.2166993  77.7965993  41.1926493
  62.4196993  76.9065993  40.5186493  62.8566993  77.5575993  40.5386493
  50.0626993  85.0795993  33.2076493  50.8186993  84.6475993  33.2656493
  50.0776993  85.6115993  33.8986493  50.1766993  85.0945993  33.3186493
  51.0026993  83.3005993  41.2126493  51.4336993  83.1715993  40.4656493
  50.7976993  84.1485993  41.1866493  51.0356993  83.4065993  41.0986493
  55.0866993  86.8165993  39.4946493  55.2126993  87.6595993  39.6816493
  55.7546993  86.4175993  39.8906493  55.2046993  86.8825993  39.5806493
  53.2166993  80.2995993  49.3566493  52.6806993  79.7935993  49.8246493
  53.2366993  79.9095993  48.5766493  53.1396993  80.1665993  49.3106493
  53.7016993  79.6965993  34.4966493  53.5736993  79.2485993  35.2346493
  53.1196993  79.3545993  33.9446493  53.5966993  79.5795993  34.5246493
  53.8686993  81.5265993  41.0956493  53.0876993  81.4675993  40.7126493
  53.9406993  80.7745993  41.5326493  53.7636993  81.4075993  41.1036493
  54.2986993  81.2635993  44.5636493  54.3236993  80.5885993  44.0126493
  53.6526993  81.7595993  44.2516493  54.2076993  81.2365993  44.4366493
  64.1936993  78.9765993  42.9596493  63.5316993  79.3045993  43.4226493
  64.3806993  79.6105993  42.3906493  64.1236993  79.1185993  42.9436493
  60.8386993  74.8825993  46.3886493  60.9876993  74.0575993  46.1456493
  61.2176993  74.9375993  47.1726493  60.9166993  74.7685993  46.4686493
  52.0976993  82.6185993  50.1226493  52.0606993  83.1195993  49.4086493
  52.4286993  81.8665993  49.8276493  52.1406993  82.5805993  49.9736493
  63.7006993  84.8235993  48.3806493  64.1846993  85.5415993  48.4786493
  64.0946993  84.3965993  47.7296493  63.8306993  84.8665993  48.2986493
  57.9966993  87.6685993  49.5576493  58.3506993  87.4905993  50.3346493
  57.5606993  86.9395993  49.3586493  57.9846993  87.5345993  49.6436493
  58.9686993  78.4155993  42.1956493  59.4486993  79.1145993  42.4036493
  59.3416993  77.7685993  42.6466493  59.0946993  78.4235993  42.2926493
  61.1576993  81.5845993  34.4696493  61.1496993  82.3065993  33.9796493
  60.5186993  81.7195993  35.0466493  61.0626993  81.7115993  34.4826493
  66.1296993  85.4545993  38.4506493  66.4856993  85.1045993  39.1656493
  66.1216993  84.7935993  37.8806493  66.1816993  85.3045993  38.4716493
  62.1746993  88.5205993  42.2946493  61.5716993  88.2245993  41.7376493
  62.7196993  88.9725993  41.7856493  62.1656993  88.5435993  42.1366493
  62.1876993  85.3715993  41.6946493  61.3906993  85.5955993  41.9686493
  62.4456993  84.7775993  42.2796493  62.1076993  85.3165993  41.8216493
  65.4476993  83.3695993  46.5406493  65.5026993  83.4945993  45.6786493
  66.2006993  83.6895993  46.8426493  65.5666993  83.4345993  46.4576493
  66.4796993  73.6675993  49.5276493  65.8426993  73.2675993  49.0856493
  66.5056993  73.2365993  50.2856493  66.3896993  73.5455993  49.5736493
  52.8726993  82.2335993  35.3736493  53.1966993  81.4545993  35.1516493
  53.5186993  82.6015993  35.8286493  53.0156993  82.1725993  35.4076493
  61.1786993  83.1755993  46.1406493  61.0236993  83.7855993  46.7446493
  61.7126993  82.6175993  46.5466493  61.2346993  83.1835993  46.2896493
  59.5626993  81.5755993  36.7986493  59.6216993  82.2255993  37.3776493
  59.3736993  80.8795993  37.2896493  59.5436993  81.5685993  36.9566493
  64.7886993  85.9045993  42.6676493  64.3096993  86.2025993  42.0016493
  64.4326993  85.1285993  42.8456493  64.6656993  85.8335993  42.5956493
  58.7856993  83.6225993  41.2296493  57.9386993  83.4285993  41.3106493
  59.1096993  83.4575993  42.0226493  58.7076993  83.5695993  41.3586493
  52.6336993  83.3155993  43.5456493  53.3556993  83.8035993  43.5086493
  52.3636993  83.2855993  42.7166493  52.7006993  83.3835993  43.4176493
  50.6846993  79.8245993  36.9356493  51.1736993  79.5325993  37.5966493
  50.8136993  79.2315993  36.3086493  50.7756993  79.6935993  36.9406493
  65.7196993  82.8465993  43.7866493  65.7126993  82.0705993  44.1846493
  64.8786993  83.0805993  43.7796493  65.5946993  82.7665993  43.8446493
  55.2096993  81.2585993  32.4216493  54.5996993  80.8535993  32.8956493
  54.8236993  81.3765993  31.6486493  55.0626993  81.2155993  32.3776493
  52.0286993  84.3675993  47.8236493  51.6076993  83.8495993  47.2626493
  51.6766993  85.1535993  47.6806493  51.9146993  84.4075993  47.7196493
  66.9756993  82.9175993  41.2236493  66.6896993  83.3185993  41.9436493
  67.8356993  82.8555993  41.3506493  67.0606993  82.9675993  41.3486493
  64.6376993  76.8415993  49.7636493  64.1126993  77.3005993  50.2876493
  64.2766993  76.0465993  49.7576493  64.5066993  76.7915993  49.8396493
  68.1066993  88.5505993  41.7526493  68.3966993  88.8075993  40.9716493
  68.8016993  88.6465993  42.2716493  68.2526993  88.6025993  41.7136493
  63.1296993  80.4105993  49.8396493  63.2026993  80.5145993  50.7026493
  62.4956993  80.9685993  49.6186493  63.0466993  80.5085993  49.9346493
  65.3976993  80.7295993  48.2046493  65.7166993  81.5155993  48.4076493
  65.0276993  80.4595993  48.9476493  65.3906993  80.8055993  48.3446493
  64.7116993  87.1535993  33.7346493  65.0456993  86.3475993  33.7696493
  63.9566993  87.0815993  34.1646493  64.6496993  87.0235993  33.8036493
  65.1936993  78.9875993  39.3936493  64.4486993  78.6645993  39.7116493
  65.1956993  79.8135993  39.6736493  65.0836993  79.0615993  39.4816493
  68.0956993  81.2715993  50.9396493  68.0436993  80.9305993  50.1386493
  68.8326993  81.7385993  50.9176493  68.1966993  81.2905993  50.8176493
  67.6336993  84.9475993  47.1456493  68.2616993  84.3985993  46.8896493
  67.5726993  85.5125993  46.4836493  67.7176993  84.9505993  47.0096493
  62.0856993  85.0285993  33.1376493  62.7696993  84.5145993  32.9686493
  61.6686993  85.0745993  32.3726493  62.1246993  84.9595993  32.9996493
  56.7676993  86.1785993  44.4416493  56.4696993  86.7705993  45.0086493
  56.8226993  86.6205993  43.6926493  56.7316993  86.3315993  44.4146493
  54.7466993  85.1285993  47.8396493  53.9406993  84.8385993  48.0066493
  54.6576993  85.9965993  47.8456493  54.6146993  85.2135993  47.8646493
  64.1056993  75.3175993  46.8546493  64.8496993  75.7695993  46.7916493
  63.5396993  75.7875993  46.3856493  64.1326993  75.4545993  46.7766493
  59.2836993  82.6015993  43.9326493  59.7596993  82.9755993  44.5606493
  58.4606993  82.7355993  44.1916493  59.2326993  82.6765993  44.0636493
  55.9936993  78.2045993  46.6736493  56.1546993  77.4605993  47.1006493
  55.9486993  77.9555993  45.8386493  56.0106993  78.0575993  46.6136493
  65.3906993  73.2975993  44.5246493  65.1106993  74.1225993  44.4806493
  66.1066993  73.3505993  45.0206493  65.4556993  73.4275993  44.5916493
  56.7306993  88.2225993  42.5496493  56.1066993  88.8045993  42.3676493
  56.9786993  87.9365993  41.7636493  56.6746993  88.2665993  42.4066493
  61.0396993  84.8565993  49.5386493  61.7966993  85.1425993  49.2126493
  60.4926993  84.9085993  48.8606493  61.0706993  84.9065993  49.3896493
  64.9486993  87.4065993  48.0426493  65.2946993  87.6765993  48.7966493
  65.2426993  87.9885993  47.4626493  65.0436993  87.5325993  48.0686493
  66.8116993  79.5525993  33.3816493  67.1896993  80.2295993  32.9816493
  65.9696993  79.7765993  33.4126493  66.7426993  79.6855993  33.3266493
  58.3246993  82.9985993  32.4646493  57.5196993  82.8215993  32.1796493
  58.2916993  83.8495993  32.6566493  58.2006993  83.0975993  32.4516493
  54.2546993  79.0655993  42.6146493  54.6946993  78.9625993  41.8686493
  54.7996993  78.7525993  43.2196493  54.3996993  79.0045993  42.5936493
  62.2706993  78.1675993  48.2066493  61.6226993  78.6375993  48.5546493
  62.8356993  78.0785993  48.8656493  62.2586993  78.2235993  48.3556493
  61.9586993  79.7045993  44.5046493  62.2606993  80.1245993  45.2076493
  61.9946993  78.8645993  44.7366493  62.0086993  79.6425993  44.6426493
  65.5286993  75.2345993  38.2306493  64.8146993  74.7635993  38.4016493
  65.3666993  75.5755993  37.4446493  65.3996993  75.2155993  38.1396493
  65.9716993  83.1785993  36.6106493  66.4476993  82.4495993  36.5626493
  65.1506993  82.8925993  36.5346493  65.9206993  83.0285993  36.5916493
  59.4426993  85.0905993  47.4496493  58.6476993  85.0265993  47.8006493
  59.5136993  85.9375993  47.2546493  59.3356993  85.2055993  47.4726493
  62.1876993  84.3455993  38.9656493  62.2636993  84.6865993  39.7646493
  62.3566993  83.4985993  39.0866493  62.2236993  84.2705993  39.1016493
  59.7096993  83.6195993  38.5306493  59.4116993  83.3045993  39.2876493
  60.4046993  84.0925993  38.7656493  59.7686993  83.6425993  38.6776493
  59.9316993  87.7375993  46.5576493  60.6186993  87.6235993  47.0826493
  60.0656993  88.5285993  46.2136493  60.0526993  87.8375993  46.5846493
  68.1076993  80.3465993  48.3686493  67.2526993  80.2245993  48.4946493
  68.2606993  79.9515993  47.6056493  68.0036993  80.2695993  48.2746493
  62.6206993  81.0115993  46.9446493  62.3656993  80.2925993  47.3666493
  63.4416993  81.1275993  47.2146493  62.7046993  80.9225993  47.0466493
  60.5546993  82.2015993  50.1316493  60.8776993  82.8875993  49.6996493
  59.8506993  82.5245993  50.5336493  60.4976993  82.3505993  50.1266493
  60.3396993  85.6655993  43.9906493  59.6456993  86.0675993  44.3336493
  61.0166993  86.0985993  44.3296493  60.3366993  85.7885993  44.0916493
  65.7166993  88.2585993  50.5706493  66.4926993  87.8685993  50.6536493
  65.2476993  87.9225993  51.2256493  65.7616993  88.1515993  50.6796493
  53.4076993  79.2035993  46.3376493  53.7826993  79.8225993  45.8506493
  54.0816993  78.7295993  46.6226493  53.5626993  79.2255993  46.3076493
  51.1826993  77.6515993  45.6126493  51.2596993  77.4825993  44.7596493
  51.9286993  78.0575993  45.8096493  51.3036993  77.6865993  45.5156493
  66.7416993  80.2915993  36.0526493  66.8446993  80.2335993  35.1886493
  67.4826993  79.9595993  36.3706493  66.8666993  80.2345993  35.9716493
  60.6616993  87.2565993  37.1596493  60.4566993  88.0895993  37.0006493
  59.8866993  86.8745993  37.2816493  60.5166993  87.3235993  37.1546493
  65.8436993  80.4375993  45.4086493  65.8416993  79.5745993  45.5326493
  65.9106993  80.7615993  46.2156493  65.8536993  80.3575993  45.5456493
  50.5796993  82.8775993  45.8366493  50.8996993  83.0965993  45.0556493
  50.4796993  82.0125993  45.7816493  50.6116993  82.7825993  45.7136493
  52.0356993  78.8135993  32.4546493  51.3636993  78.8275993  33.0106493
  52.1306993  77.9655993  32.2706493  51.9506993  78.6905993  32.5096493
  61.7226993  75.2375993  49.1906493  61.8146993  75.9495993  49.6846493
  61.0856993  74.7925993  49.5876493  61.6416993  75.2765993  49.3226493
  56.0236993  87.5185993  33.5686493  56.4646993  87.5985993  34.3166493
  55.2186993  87.3025993  33.8266493  55.9696993  87.4985993  33.7176493
  64.3146993  75.9435993  42.8446493  65.1696993  76.0425993  42.9896493
  63.9456993  76.4965993  43.4096493  64.3866993  76.0405993  42.9496493
  55.3426993  82.1695993  47.2216493  54.9466993  82.9435993  47.2966493
  54.9366993  81.7965993  46.5456493  55.2246993  82.2285993  47.1326493
  64.6186993  81.2235993  41.3356493  65.2846993  81.7645993  41.4956493
  64.2736993  81.5345993  40.5966493  64.6656993  81.3495993  41.2506493
  53.3526993  86.5885993  34.1696493  53.1086993  86.2815993  34.9496493
  53.3196993  85.8855993  33.6536493  53.3116993  86.4395993  34.2086493
  56.1716993  84.8335993  32.9126493  55.3536993  84.5655993  33.0526493
  56.1436993  85.6855993  33.0976493  56.0466993  84.9205993  32.9606493
  67.7896993  73.7815993  46.0006493  67.7376993  73.7375993  46.8706493
  68.4766993  73.2785993  45.8106493  67.8836993  73.7015993  46.1006493
  59.8746993  75.8945993  43.0456493  59.1376993  75.4405993  43.1586493
  60.4456993  75.4925993  43.5686493  59.8496993  75.7675993  43.1396493
  62.6066993  86.7425993  44.8336493  62.8126993  87.0435993  45.6256493
  62.5456993  87.4645993  44.3486493  62.6276993  86.8935993  44.8786493
  57.3776993  80.2235993  48.2496493  57.0556993  79.6475993  47.6796493
  57.0186993  80.9785993  48.0036493  57.2776993  80.2495993  48.1296493
  67.4186993  85.3815993  44.2916493  67.3866993  84.5195993  44.1566493
  66.7256993  85.6835993  43.8576493  67.3116993  85.2985993  44.2076493
  65.5236993  88.6415993  43.0886493  66.0506993  88.5585993  42.3976493
  65.1326993  87.8635993  43.1426493  65.5436993  88.5145993  42.9946493
  61.3966993  79.8935993  39.7896493  61.9476993  79.2865993  40.0896493
  60.9716993  80.1565993  40.5046493  61.4156993  79.8425993  39.9386493
  51.6446993  78.5435993  39.2756493  51.2766993  78.8455993  40.0066493
  52.1786993  77.9145993  39.5596493  51.6686993  78.4955993  39.4256493
  51.3326993  86.9515993  46.7866493  50.7586993  87.3675993  47.2956493
  52.0656993  87.4165993  46.8816493  51.3566993  87.0815993  46.8756493
  63.3666993  81.7245993  36.3516493  63.4346993  80.8745993  36.5326493
  62.5436993  81.8105993  36.0736493  63.2546993  81.6115993  36.3376493
  57.2856993  82.6155993  35.2896493  57.3856993  82.7545993  34.4346493
  58.1036993  82.5555993  35.5856493  57.4206993  82.6265993  35.2066493
  66.6406993  83.0975993  49.5026493  67.2746993  82.9275993  50.0766493
  67.0576993  83.5005993  48.8506493  66.7956993  83.1325993  49.4916493
  62.5206993  86.9445993  35.0916493  62.2696993  86.8165993  35.9176493
  62.2036993  86.2495993  34.6706493  62.4366993  86.8235993  35.1516493
  67.2656993  77.6615993  50.2406493  67.0696993  78.3055993  50.7956493
  66.5436993  77.1715993  50.2326493  67.1306993  77.6845993  50.3216493
  67.1646993  78.6025993  43.2116493  66.3316993  78.8525993  43.1396493
  67.1086993  77.7625993  43.4406493  67.0336993  78.5155993  43.2346493
  64.0516993  83.2085993  50.8576493  64.9226993  83.1725993  50.8216493
  63.8326993  83.6285993  50.1256493  64.1486993  83.2645993  50.7446493
  59.4066993  85.1525993  34.5216493  60.1236993  84.8055993  34.1656493
  59.3726993  85.9525993  34.1736493  59.5076993  85.2195993  34.4176493
  60.8156993  73.7935993  18.7604083  60.5706993  74.2815993  18.0804083
  61.6786993  73.7205993  18.6604083  60.9066993  73.8545993  18.6454083
  60.6246993  80.7095993  23.4314083  60.1006993  81.3055993  23.7944083
  61.0216993  80.3415993  24.1154083  60.6056993  80.7435993  23.5864083
  50.4936993  84.8495993  18.8874083  50.0526993  84.9675993  19.6304083
  50.2106993  84.0745993  18.6024083  50.3866993  84.7525993  18.9554083
  66.7686993  88.1505993  16.4024083  67.4696993  87.6315993  16.3984083
  66.1816993  87.7055993  15.9334083  66.7856993  88.0075993  16.3324083
  50.2366993  78.6415993  15.3944083  49.4586993  78.8035993  15.0344083
  50.2756993  77.7705993  15.4164083  50.1276993  78.5365993  15.3444083
  53.3756993  83.9045993  14.0664083  52.9836993  83.5335993  13.3804083
  53.2956993  83.3065993  14.6954083  53.3056993  83.7615993  14.0574083
  63.2956993  81.7765993  20.1074083  63.3756993  81.7805993  19.2384083
  62.7116993  81.1445993  20.2564083  63.2206993  81.6835993  20.0014083
  53.0026993  85.5455993  17.9664083  53.6106993  85.3755993  18.5694083
  52.2516993  85.4055993  18.3874083  52.9816993  85.4995993  18.1174083
  57.2846993  74.8805993  17.9154083  57.2146993  75.5575993  17.3694083
  58.0256993  74.4925993  17.6664083  57.3836993  74.9235993  17.7974083
  51.8936993  88.6365993  14.0434083  52.3606993  88.7205993  13.3114083
  52.3486993  88.0585993  14.5124083  52.0296993  88.5635993  14.0044083
  50.4336993  87.5845993  25.1424083  50.5626993  87.3045993  25.9584083
  49.8236993  87.0435993  24.8334083  50.3626993  87.4635993  25.2174083
  57.0076993  85.1095993  30.2094083  56.7716993  85.1065993  31.0494083
  56.2596993  84.9615993  29.7854083  56.8616993  85.0865993  30.2704083
  51.8796993  82.1055993  19.3444083  51.4176993  81.7135993  18.7174083
  52.5796993  81.5925993  19.4364083  51.9146993  81.9725993  19.2654083
  56.3876993  77.7155993  24.6914083  57.0656993  77.7335993  24.1424083
  56.3426993  76.8795993  24.9364083  56.4806993  77.5945993  24.6464083
  56.9896993  88.3015993  27.4724083  57.1276993  89.0615993  27.0654083
  57.7806993  87.9365993  27.4994083  57.1266993  88.3605993  27.4164083
  53.8806993  80.2055993  19.3674083  54.6976993  80.0185993  19.6104083
  53.4036993  79.5915993  19.7634083  53.9306993  80.0875993  19.4624083
  58.0846993  86.1865993  21.9774083  58.4326993  85.3875993  22.0074083
  58.7496993  86.6905993  21.7224083  58.2346993  86.1425993  21.9444083
  58.1416993  85.6355993  18.1884083  58.4726993  84.9915993  18.6744083
  58.3816993  85.4245993  17.3774083  58.2256993  85.5095993  18.1404083
  60.1096993  79.7665993  29.5274083  59.2616993  79.6675993  29.3494083
  60.1386993  80.5115993  29.9814083  59.9886993  79.8625993  29.5684083
  54.4776993  75.2995993  18.6334083  54.1816993  75.8005993  17.9834083
  55.3446993  75.3775993  18.5764083  54.5616993  75.3855993  18.5294083
  57.4566993  74.4415993  20.8564083  57.5296993  75.3015993  20.9854083
  57.4186993  74.3665993  19.9884083  57.4616993  74.5575993  20.7474083
  62.1296993  77.3675993  13.1554083  61.6796993  78.0485993  13.4624083
  62.2436993  76.8635993  13.8584083  62.0806993  77.3935993  13.3044083
  50.3356993  79.8665993  22.3574083  50.0796993  80.6975993  22.2824083
  49.6716993  79.4835993  22.7744083  50.1996993  79.9325993  22.4084083
  56.0856993  87.4205993  17.7374083  55.5066993  87.1455993  18.3294083
  56.7096993  86.8115993  17.7624083  56.0926993  87.2905993  17.8284083
  53.3646993  74.6835993  22.8484083  52.8436993  74.0555993  22.5404083
  53.9556993  74.2465993  23.3194083  53.3756993  74.5255993  22.8724083
  51.7906993  88.2465993  18.1884083  52.4466993  87.6715993  18.2034083
  52.1796993  88.9955993  17.9674083  51.9456993  88.2715993  18.1584083
  67.5236993  77.3405993  19.4504083  67.1776993  78.0185993  19.8764083
  66.8876993  76.7425993  19.4664083  67.3786993  77.3525993  19.5154083
  52.6086993  86.7335993  21.6884083  53.0316993  86.3775993  21.0144083
  52.9326993  86.3115993  22.3804083  52.7186993  86.6185993  21.6914083
  59.6466993  78.9825993  19.0714083  59.9336993  78.7505993  18.2814083
  60.3786993  79.0615993  19.5404083  59.7966993  78.9595993  19.0244083
  60.3686993  79.3215993  14.1924083  60.6496993  80.1095993  14.4414083
  59.5926993  79.4865993  13.8294083  60.2956993  79.4625993  14.1754083
  67.1986993  75.6635993  24.8194083  67.9556993  75.7355993  24.3914083
  67.2616993  74.8905993  25.2184083  67.3196993  75.5605993  24.8144083
  49.7516993  76.9615993  28.7164083  49.7476993  77.5485993  29.3624083
  50.3456993  77.2735993  28.1594083  49.8386993  77.0945993  28.7294083
  62.0896993  87.2955993  29.2584083  62.0556993  87.6775993  30.0424083
  62.9436993  87.2535993  29.0874083  62.2106993  87.3455993  29.3494083
  59.2276993  87.4925993  14.0084083  59.0466993  88.0375993  14.6654083
  59.9936993  87.7825993  13.7074083  59.3136993  87.6165993  14.0614083
  62.7346993  75.3885993  15.0624083  63.2746993  74.7065993  15.1384083
  62.7966993  75.7865993  15.8364083  62.8236993  75.3465993  15.1884083
  50.6886993  76.5565993  17.6314083  50.5746993  75.6925993  17.6624083
  50.2136993  76.8505993  18.3014083  50.6016993  76.4725993  17.7344083
  52.8306993  88.9665993  25.8464083  52.1326993  88.4585993  25.9724083
  53.0906993  88.7615993  25.0384083  52.7656993  88.8615993  25.7454083
  59.9926993  77.7645993  16.3764083  59.4846993  77.1025993  16.1224083
  60.0446993  78.2685993  15.6664083  59.9256993  77.7415993  16.2344083
  59.9926993  74.7055993  16.2674083  59.5376993  74.3035993  15.6414083
  60.7656993  74.8605993  15.8924083  60.0396993  74.6695993  16.1194083
  58.5906993  77.0725993  20.7894083  58.6646993  77.6405993  20.1314083
  58.7116993  77.5645993  21.4994083  58.6186993  77.2295993  20.7974083
  63.8156993  86.9075993  19.2014083  64.5166993  86.4255993  19.3904083
  63.1556993  86.3385993  19.2464083  63.8216993  86.7525993  19.2354083
  54.1916993  87.8175993  28.4134083  55.0326993  87.8805993  28.1914083
  54.1546993  88.2145993  29.1894083  54.3106993  87.8855993  28.4954083
  53.1986993  72.8955993  19.1374083  53.7346993  73.5835993  19.1274083
  53.2016993  72.6215993  18.3094083  53.2776993  72.9565993  19.0134083
  56.1546993  83.3285993  23.1624083  56.3266993  83.1185993  23.9914083
  55.4996993  82.7945993  22.9464083  56.0836993  83.2185993  23.2534083
  62.3826993  77.2425993  26.6774083  62.2876993  77.5615993  27.4834083
  61.7896993  76.6035993  26.6394083  62.2806993  77.1945993  26.7914083
  56.9046993  83.2665993  25.7524083  56.9576993  84.1135993  25.9544083
  56.6196993  82.8965993  26.4894083  56.8706993  83.3365993  25.8904083
  63.0816993  83.9615993  24.8824083  62.5676993  83.5495993  25.4534083
  62.9556993  84.8055993  25.0634083  62.9876993  84.0255993  24.9934083
  63.6386993  73.1865993  19.5134083  63.6876993  72.8685993  20.3244083
  63.9616993  72.5425993  19.0204083  63.6936993  73.0445993  19.5604083
  49.7256993  87.6375993  31.9634083  50.4816993  87.9865993  32.2214083
  49.9026993  86.7845993  31.9064083  49.8636993  87.5625993  31.9934083
  66.1026993  77.4225993  27.8214083  66.8746993  77.1975993  28.1584083
  65.6276993  77.6395993  28.5214083  66.1466993  77.4215993  27.9744083
  53.6466993  76.7055993  20.7914083  53.9186993  76.2755993  20.0834083
  53.4706993  76.0695993  21.3624083  53.6606993  76.5485993  20.7714083
  66.3346993  84.4005993  15.0094083  66.4536993  84.1135993  15.8244083
  67.1416993  84.4215993  14.6794083  66.4706993  84.3615993  15.0814083
  53.4706993  84.1325993  20.3404083  54.3216993  84.0525993  20.1674083
  53.1136993  83.4505993  19.9284083  53.5436993  84.0195993  20.2534083
  51.7876993  77.8075993  23.8734083  52.6306993  78.0275993  23.8304083
  51.3986993  78.3805993  23.3424083  51.8546993  77.9245993  23.7884083
  64.2296993  80.9375993  14.5944083  64.0096993  81.6685993  14.1724083
  63.7816993  80.9885993  15.3414083  64.1306993  81.0525993  14.6424083
  55.8386993  84.1395993  18.5754083  56.5516993  84.6345993  18.6654083
  56.0606993  83.5725993  17.9494083  55.9766993  84.1285993  18.4964083
  68.4166993  75.7985993  14.0474083  67.7546993  75.2305993  14.0704083
  68.2236993  76.3105993  13.3674083  68.2906993  75.7905993  13.9504083
  49.9946993  85.7825993  21.8954083  49.3276993  86.2705993  22.1714083
  50.6746993  86.3275993  21.9244083  49.9966993  85.9345993  21.9404083
  57.6416993  79.4925993  31.9914083  57.1576993  80.0695993  32.4334083
  57.6136993  79.7875993  31.1704083  57.5656993  79.6215993  31.9354083
  68.7396993  80.1765993  26.6034083  68.9546993  79.3765993  26.3274083
  67.8896993  80.2365993  26.4144083  68.6456993  80.0675993  26.5344083
  50.0606993  82.4665993  16.9984083  49.8756993  81.6275993  17.1504083
  50.7196993  82.4305993  16.4284083  50.1306993  82.3375993  16.9364083
  66.4186993  75.3565993  16.3264083  67.1646993  74.9495993  16.5254083
  66.6816993  76.0715993  15.9014083  66.5676993  75.4025993  16.2934083
  60.3616993  87.8425993  20.9024083  59.8386993  88.4765993  20.6094083
  60.6716993  87.4785993  20.1734083  60.3296993  87.8825993  20.7514083
  50.2326993  86.6305993  16.5734083  50.7846993  87.1995993  16.9374083
  50.0006993  86.1155993  17.2384083  50.2796993  86.6385993  16.7254083
  54.4366993  85.6305993  23.6624083  54.9036993  85.9195993  24.3404083
  55.0086993  85.1525993  23.2084083  54.5906993  85.6025993  23.6954083
  62.8726993  77.6445993  21.3994083  63.2166993  77.7965993  22.1864083
  62.4196993  76.9065993  21.5124083  62.8566993  77.5575993  21.5324083
  50.0626993  85.0795993  14.2014083  50.8186993  84.6475993  14.2594083
  50.0776993  85.6115993  14.8924083  50.1766993  85.0945993  14.3124083
  51.0026993  83.3005993  22.2064083  51.4336993  83.1715993  21.4594083
  50.7976993  84.1485993  22.1804083  51.0356993  83.4065993  22.0924083
  57.3486993  76.8645993  15.8564083  57.3466993  76.7475993  14.9914083
  57.1676993  77.7125993  15.9484083  57.3216993  76.9725993  15.7424083
  55.0866993  86.8165993  20.4884083  55.2126993  87.6595993  20.6754083
  55.7546993  86.4175993  20.8844083  55.2046993  86.8825993  20.5744083
  53.2166993  80.2995993  30.3504083  52.6806993  79.7935993  30.8184083
  53.2366993  79.9095993  29.5704083  53.1396993  80.1665993  30.3044083
  53.7016993  79.6965993  15.4904083  53.5736993  79.2485993  16.2284083
  53.1196993  79.3545993  14.9384083  53.5966993  79.5795993  15.5184083
  53.8686993  81.5265993  22.0894083  53.0876993  81.4675993  21.7064083
  53.9406993  80.7745993  22.5264083  53.7636993  81.4075993  22.0974083
  54.2986993  81.2635993  25.5574083  54.3236993  80.5885993  25.0064083
  53.6526993  81.7595993  25.2454083  54.2076993  81.2365993  25.4304083
  64.1936993  78.9765993  23.9534083  63.5316993  79.3045993  24.4164083
  64.3806993  79.6105993  23.3844083  64.1236993  79.1185993  23.9374083
  62.3866993  76.9455993  17.4644083  62.8766993  77.6625993  17.3874083
  61.5966993  77.2065993  17.2014083  62.3426993  77.0895993  17.4144083
  52.0976993  82.6185993  31.1164083  52.0606993  83.1195993  30.4024083
  52.4286993  81.8665993  30.8214083  52.1406993  82.5805993  30.9674083
  63.7006993  84.8235993  29.3744083  64.1846993  85.5415993  29.4724083
  64.0946993  84.3965993  28.7234083  63.8306993  84.8665993  29.2924083
  57.9966993  87.6685993  30.5514083  58.3506993  87.4905993  31.3284083
  57.5606993  86.9395993  30.3524083  57.9846993  87.5345993  30.6374083
  58.9686993  78.4155993  23.1894083  59.4486993  79.1145993  23.3974083
  59.3416993  77.7685993  23.6404083  59.0946993  78.4235993  23.2864083
  61.1576993  81.5845993  15.4634083  61.1496993  82.3065993  14.9734083
  60.5186993  81.7195993  16.0404083  61.0626993  81.7115993  15.4764083
  66.1296993  85.4545993  19.4444083  66.4856993  85.1045993  20.1594083
  66.1216993  84.7935993  18.8744083  66.1816993  85.3045993  19.4654083
  62.1746993  88.5205993  23.2884083  61.5716993  88.2245993  22.7314083
  62.7196993  88.9725993  22.7794083  62.1656993  88.5435993  23.1304083
  62.1876993  85.3715993  22.6884083  61.3906993  85.5955993  22.9624083
  62.4456993  84.7775993  23.2734083  62.1076993  85.3165993  22.8154083
  55.7506993  73.9265993  15.1244083  55.8476993  73.8195993  15.9854083
  55.0426993  74.4325993  15.0594083  55.6606993  73.9855993  15.2424083
  65.4476993  83.3695993  27.5344083  65.5026993  83.4945993  26.6724083
  66.2006993  83.6895993  27.8364083  65.5666993  83.4345993  27.4514083
  52.8726993  82.2335993  16.3674083  53.1966993  81.4545993  16.1454083
  53.5186993  82.6015993  16.8224083  53.0156993  82.1725993  16.4014083
  61.1786993  83.1755993  27.1344083  61.0236993  83.7855993  27.7384083
  61.7126993  82.6175993  27.5404083  61.2346993  83.1835993  27.2834083
  49.8696993  73.8945993  17.3354083  49.9986993  73.1865993  16.8434083
  49.5026993  73.5765993  18.0604083  49.8346993  73.7425993  17.3704083
  59.5626993  81.5755993  17.7924083  59.6216993  82.2255993  18.3714083
  59.3736993  80.8795993  18.2834083  59.5436993  81.5685993  17.9504083
  64.7886993  85.9045993  23.6614083  64.3096993  86.2025993  22.9954083
  64.4326993  85.1285993  23.8394083  64.6656993  85.8335993  23.5894083
  54.0586993  76.0925993  14.3044083  53.5476993  76.1455993  13.5984083
  54.8426993  76.3325993  14.0084083  54.0986993  76.1355993  14.1564083
  58.7856993  83.6225993  22.2234083  57.9386993  83.4285993  22.3044083
  59.1096993  83.4575993  23.0164083  58.7076993  83.5695993  22.3524083
  52.6336993  83.3155993  24.5394083  53.3556993  83.8035993  24.5024083
  52.3636993  83.2855993  23.7104083  52.7006993  83.3835993  24.4114083
  55.8636993  78.4865993  21.2744083  56.7096993  78.2965993  21.3724083
  55.4936993  77.7095993  21.1364083  55.9336993  78.3435993  21.2684083
  50.6846993  79.8245993  17.9294083  51.1736993  79.5325993  18.5904083
  50.8136993  79.2315993  17.3024083  50.7756993  79.6935993  17.9344083
  65.7196993  82.8465993  24.7804083  65.7126993  82.0705993  25.1784083
  64.8786993  83.0805993  24.7734083  65.5946993  82.7665993  24.8384083
  55.2096993  81.2585993  13.4154083  54.5996993  80.8535993  13.8894083
  54.8236993  81.3765993  12.6424083  55.0626993  81.2155993  13.3714083
  52.0286993  84.3675993  28.8174083  51.6076993  83.8495993  28.2564083
  51.6766993  85.1535993  28.6744083  51.9146993  84.4075993  28.7134083
  66.9756993  82.9175993  22.2174083  66.6896993  83.3185993  22.9374083
  67.8356993  82.8555993  22.3444083  67.0606993  82.9675993  22.3424083
  56.6646993  79.7195993  16.1254083  56.9366993  80.5455993  16.1924083
  55.8016993  79.7945993  16.0294083  56.5776993  79.8525993  16.1204083
  50.1446993  75.6895993  22.6614083  50.1886993  76.0335993  21.8604083
  50.8996993  75.9265993  23.0284083  50.2626993  75.7755993  22.5974083
  68.1066993  88.5505993  22.7464083  68.3966993  88.8075993  21.9654083
  68.8016993  88.6465993  23.2654083  68.2526993  88.6025993  22.7074083
  63.1296993  80.4105993  30.8334083  63.2026993  80.5145993  31.6964083
  62.4956993  80.9685993  30.6124083  63.0466993  80.5085993  30.9284083
  65.3976993  80.7295993  29.1984083  65.7166993  81.5155993  29.4014083
  65.0276993  80.4595993  29.9414083  65.3906993  80.8055993  29.3384083
  64.7116993  87.1535993  14.7284083  65.0456993  86.3475993  14.7634083
  63.9566993  87.0815993  15.1584083  64.6496993  87.0235993  14.7974083
  65.1936993  78.9875993  20.3874083  64.4486993  78.6645993  20.7054083
  65.1956993  79.8135993  20.6674083  65.0836993  79.0615993  20.4754083
  68.0956993  81.2715993  31.9334083  68.0436993  80.9305993  31.1324083
  68.8326993  81.7385993  31.9114083  68.1966993  81.2905993  31.8114083
  67.6336993  84.9475993  28.1394083  68.2616993  84.3985993  27.8834083
  67.5726993  85.5125993  27.4774083  67.7176993  84.9505993  28.0034083
  62.0856993  85.0285993  14.1314083  62.7696993  84.5145993  13.9624083
  61.6686993  85.0745993  13.3664083  62.1246993  84.9595993  13.9934083
  56.7676993  86.1785993  25.4354083  56.4696993  86.7705993  26.0024083
  56.8226993  86.6205993  24.6864083  56.7316993  86.3315993  25.4084083
  54.7466993  85.1285993  28.8334083  53.9406993  84.8385993  29.0004083
  54.6576993  85.9965993  28.8394083  54.6146993  85.2135993  28.8584083
  64.1056993  75.3175993  27.8484083  64.8496993  75.7695993  27.7854083
  63.5396993  75.7875993  27.3794083  64.1326993  75.4545993  27.7704083
  59.2836993  82.6015993  24.9264083  59.7596993  82.9755993  25.5544083
  58.4606993  82.7355993  25.1854083  59.2326993  82.6765993  25.0574083
  65.3906993  73.2975993  25.5184083  65.1106993  74.1225993  25.4744083
  66.1066993  73.3505993  26.0144083  65.4556993  73.4275993  25.5854083
  56.7306993  88.2225993  23.5434083  56.1066993  88.8045993  23.3614083
  56.9786993  87.9365993  22.7574083  56.6746993  88.2665993  23.4004083
  61.0396993  84.8565993  30.5324083  61.7966993  85.1425993  30.2064083
  60.4926993  84.9085993  29.8544083  61.0706993  84.9065993  30.3834083
  64.9486993  87.4065993  29.0364083  65.2946993  87.6765993  29.7904083
  65.2426993  87.9885993  28.4564083  65.0436993  87.5325993  29.0624083
  66.8116993  79.5525993  14.3754083  67.1896993  80.2295993  13.9754083
  65.9696993  79.7765993  14.4064083  66.7426993  79.6855993  14.3204083
  58.3246993  82.9985993  13.4584083  57.5196993  82.8215993  13.1734083
  58.2916993  83.8495993  13.6504083  58.2006993  83.0975993  13.4454083
  54.2546993  79.0655993  23.6084083  54.6946993  78.9625993  22.8624083
  54.7996993  78.7525993  24.2134083  54.3996993  79.0045993  23.5874083
  61.9586993  79.7045993  25.4984083  62.2606993  80.1245993  26.2014083
  61.9946993  78.8645993  25.7304083  62.0086993  79.6425993  25.6364083
  64.5066993  79.1515993  17.7504083  64.7136993  78.9505993  18.5744083
  65.2626993  79.4195993  17.4084083  64.6486993  79.1615993  17.8214083
  57.8016993  74.0505993  23.6554083  56.9756993  73.9015993  23.8924083
  57.7616993  74.0855993  22.7844083  57.6736993  74.0335993  23.5614083
  65.5286993  75.2345993  19.2244083  64.8146993  74.7635993  19.3954083
  65.3666993  75.5755993  18.4384083  65.3996993  75.2155993  19.1334083
  65.9716993  83.1785993  17.6044083  66.4476993  82.4495993  17.5564083
  65.1506993  82.8925993  17.5284083  65.9206993  83.0285993  17.5854083
  59.4426993  85.0905993  28.4434083  58.6476993  85.0265993  28.7944083
  59.5136993  85.9375993  28.2484083  59.3356993  85.2055993  28.4664083
  53.4306993  77.1925993  16.9154083  53.5566993  76.8635993  16.1174083
  52.6186993  76.9435993  17.1144083  53.3296993  77.1075993  16.8274083
  62.1876993  84.3455993  19.9594083  62.2636993  84.6865993  20.7584083
  62.3566993  83.4985993  20.0804083  62.2236993  84.2705993  20.0954083
  59.7096993  83.6195993  19.5244083  59.4116993  83.3045993  20.2814083
  60.4046993  84.0925993  19.7594083  59.7686993  83.6425993  19.6714083
  59.9316993  87.7375993  27.5514083  60.6186993  87.6235993  28.0764083
  60.0656993  88.5285993  27.2074083  60.0526993  87.8375993  27.5784083
  68.1076993  80.3465993  29.3624083  67.2526993  80.2245993  29.4884083
  68.2606993  79.9515993  28.5994083  68.0036993  80.2695993  29.2684083
  62.6206993  81.0115993  27.9384083  62.3656993  80.2925993  28.3604083
  63.4416993  81.1275993  28.2084083  62.7046993  80.9225993  28.0404083
  60.5546993  82.2015993  31.1254083  60.8776993  82.8875993  30.6934083
  59.8506993  82.5245993  31.5274083  60.4976993  82.3505993  31.1204083
  60.3396993  85.6655993  24.9844083  59.6456993  86.0675993  25.3274083
  61.0166993  86.0985993  25.3234083  60.3366993  85.7885993  25.0854083
  65.7166993  88.2585993  31.5644083  66.4926993  87.8685993  31.6474083
  65.2476993  87.9225993  32.2194083  65.7616993  88.1515993  31.6734083
  53.4076993  79.2035993  27.3314083  53.7826993  79.8225993  26.8444083
  54.0816993  78.7295993  27.6164083  53.5626993  79.2255993  27.3014083
  51.1826993  77.6515993  26.6064083  51.2596993  77.4825993  25.7534083
  51.9286993  78.0575993  26.8034083  51.3036993  77.6865993  26.5094083
  66.7416993  80.2915993  17.0464083  66.8446993  80.2335993  16.1824083
  67.4826993  79.9595993  17.3644083  66.8666993  80.2345993  16.9654083
  60.6616993  87.2565993  18.1534083  60.4566993  88.0895993  17.9944083
  59.8866993  86.8745993  18.2754083  60.5166993  87.3235993  18.1484083
  65.8436993  80.4375993  26.4024083  65.8416993  79.5745993  26.5264083
  65.9106993  80.7615993  27.2094083  65.8536993  80.3575993  26.5394083
  50.5796993  82.8775993  26.8304083  50.8996993  83.0965993  26.0494083
  50.4796993  82.0125993  26.7754083  50.6116993  82.7825993  26.7074083
  52.0356993  78.8135993  13.4484083  51.3636993  78.8275993  14.0044083
  52.1306993  77.9655993  13.2644083  51.9506993  78.6905993  13.5034083
  60.7166993  75.4275993  21.0384083  60.0166993  75.9455993  20.9824083
  60.7546993  75.0475993  20.2544083  60.6186993  75.4485993  20.9144083
  56.0236993  87.5185993  14.5624083  56.4646993  87.5985993  15.3104083
  55.2186993  87.3025993  14.8204083  55.9696993  87.4985993  14.7114083
  64.3146993  75.9435993  23.8384083  65.1696993  76.0425993  23.9834083
  63.9456993  76.4965993  24.4034083  64.3866993  76.0405993  23.9434083
  55.3426993  82.1695993  28.2154083  54.9466993  82.9435993  28.2904083
  54.9366993  81.7965993  27.5394083  55.2246993  82.2285993  28.1264083
  64.6186993  81.2235993  22.3294083  65.2846993  81.7645993  22.4894083
  64.2736993  81.5345993  21.5904083  64.6656993  81.3495993  22.2444083
  53.3526993  86.5885993  15.1634083  53.1086993  86.2815993  15.9434083
  53.3196993  85.8855993  14.6474083  53.3116993  86.4395993  15.2024083
  56.1716993  84.8335993  13.9064083  55.3536993  84.5655993  14.0464083
  56.1436993  85.6855993  14.0914083  56.0466993  84.9205993  13.9544083
  67.7896993  73.7815993  26.9944083  67.7376993  73.7375993  27.8644083
  68.4766993  73.2785993  26.8044083  67.8836993  73.7015993  27.0944083
  59.8746993  75.8945993  24.0394083  59.1376993  75.4405993  24.1524083
  60.4456993  75.4925993  24.5624083  59.8496993  75.7675993  24.1334083
  62.6066993  86.7425993  25.8274083  62.8126993  87.0435993  26.6194083
  62.5456993  87.4645993  25.3424083  62.6276993  86.8935993  25.8724083
  57.3776993  80.2235993  29.2434083  57.0556993  79.6475993  28.6734083
  57.0186993  80.9785993  28.9974083  57.2776993  80.2495993  29.1234083
  58.1736993  73.4755993  13.8704083  58.2516993  73.7225993  13.0374083
  57.4306993  73.8525993  14.1284083  58.0756993  73.5675993  13.7854083
  67.4186993  85.3815993  25.2854083  67.3866993  84.5195993  25.1504083
  66.7256993  85.6835993  24.8514083  67.3116993  85.2985993  25.2014083
  65.5236993  88.6415993  24.0824083  66.0506993  88.5585993  23.3914083
  65.1326993  87.8635993  24.1364083  65.5436993  88.5145993  23.9884083
  52.9916993  75.2295993  26.3134083  52.6486993  74.4625993  26.0794083
  52.2966993  75.7535993  26.3774083  52.8386993  75.1935993  26.2884083
  62.0376993  74.0855993  23.2904083  62.7076993  74.6295993  23.4174083
  61.5346993  74.5095993  22.7174083  62.0626993  74.2285993  23.2244083
  61.3966993  79.8935993  20.7834083  61.9476993  79.2865993  21.0834083
  60.9716993  80.1565993  21.4984083  61.4156993  79.8425993  20.9324083
  51.6446993  78.5435993  20.2694083  51.2766993  78.8455993  21.0004083
  52.1786993  77.9145993  20.5534083  51.6686993  78.4955993  20.4194083
  51.3326993  86.9515993  27.7804083  50.7586993  87.3675993  28.2894083
  52.0656993  87.4165993  27.8754083  51.3566993  87.0815993  27.8694083
  63.3666993  81.7245993  17.3454083  63.4346993  80.8745993  17.5264083
  62.5436993  81.8105993  17.0674083  63.2546993  81.6115993  17.3314083
  57.2856993  82.6155993  16.2834083  57.3856993  82.7545993  15.4284083
  58.1036993  82.5555993  16.5794083  57.4206993  82.6265993  16.2004083
  66.6406993  83.0975993  30.4964083  67.2746993  82.9275993  31.0704083
  67.0576993  83.5005993  29.8444083  66.7956993  83.1325993  30.4854083
  62.5206993  86.9445993  16.0854083  62.2696993  86.8165993  16.9114083
  62.2036993  86.2495993  15.6644083  62.4366993  86.8235993  16.1454083
  67.2656993  77.6615993  31.2344083  67.0696993  78.3055993  31.7894083
  66.5436993  77.1715993  31.2264083  67.1306993  77.6845993  31.3154083
  67.1646993  78.6025993  24.2054083  66.3316993  78.8525993  24.1334083
  67.1086993  77.7625993  24.4344083  67.0336993  78.5155993  24.2284083
  64.0516993  83.2085993  31.8514083  64.9226993  83.1725993  31.8154083
  63.8326993  83.6285993  31.1194083  64.1486993  83.2645993  31.7384083
  59.4066993  85.1525993  15.5154083  60.1236993  84.8055993  15.1594083
  59.3726993  85.9525993  15.1674083  59.5076993  85.2195993  15.4114083
  60.6246993  80.7095993   4.4251673  60.1006993  81.3055993   4.7881673
  61.0216993  80.3415993   5.1091673  60.6056993  80.7435993   4.5801673
  50.4336993  87.5845993   6.1361673  50.5626993  87.3045993   6.9521673
  49.8236993  87.0435993   5.8271673  50.3626993  87.4635993   6.2111673
  57.0076993  85.1095993  11.2031673  56.7716993  85.1065993  12.0431673
  56.2596993  84.9615993  10.7791673  56.8616993  85.0865993  11.2641673
  56.3876993  77.7155993   5.6851673  57.0656993  77.7335993   5.1361673
  56.3426993  76.8795993   5.9301673  56.4806993  77.5945993   5.6401673
  56.9896993  88.3015993   8.4661673  57.1276993  89.0615993   8.0591673
  57.7806993  87.9365993   8.4931673  57.1266993  88.3605993   8.4101673
  58.0846993  86.1865993   2.9711673  58.4326993  85.3875993   3.0011673
  58.7496993  86.6905993   2.7161673  58.2346993  86.1425993   2.9381673
  60.1096993  79.7665993  10.5211673  59.2616993  79.6675993  10.3431673
  60.1386993  80.5115993  10.9751673  59.9886993  79.8625993  10.5621673
  64.6676993  72.7265993   9.6351673  64.5096993  73.4955993   9.2531673
  63.8956993  72.5065993   9.9791673  64.5296993  72.8075993   9.6301673
  50.3356993  79.8665993   3.3511673  50.0796993  80.6975993   3.2761673
  49.6716993  79.4835993   3.7681673  50.1996993  79.9325993   3.4021673
  53.3646993  74.6835993   3.8421673  52.8436993  74.0555993   3.5341673
  53.9556993  74.2465993   4.3131673  53.3756993  74.5255993   3.8661673
  56.6706993  76.8165993  13.1401673  56.7876993  76.3625993  12.4041673
  56.9586993  77.6145993  12.9371673  56.7306993  76.8675993  13.0011673
  52.4036993  76.4135993  12.1241673  51.6256993  76.0235993  12.0521673
  52.8946993  76.0015993  11.5331673  52.3606993  76.2945993  12.0261673
  52.6086993  86.7335993   2.6821673  53.0316993  86.3775993   2.0081673
  52.9326993  86.3115993   3.3741673  52.7186993  86.6185993   2.6851673
  59.0526993  74.0565993  11.2921673  59.2306993  73.2475993  11.0171673
  58.9096993  74.4975993  10.5531673  59.0576993  74.0025993  11.1421673
  67.1986993  75.6635993   5.8131673  67.9556993  75.7355993   5.3851673
  67.2616993  74.8905993   6.2121673  67.3196993  75.5605993   5.8081673
  49.7516993  76.9615993   9.7101673  49.7476993  77.5485993  10.3561673
  50.3456993  77.2735993   9.1531673  49.8386993  77.0945993   9.7231673
  62.0896993  87.2955993  10.2521673  62.0556993  87.6775993  11.0361673
  62.9436993  87.2535993  10.0811673  62.2106993  87.3455993  10.3431673
  52.8306993  88.9665993   6.8401673  52.1326993  88.4585993   6.9661673
  53.0906993  88.7615993   6.0321673  52.7656993  88.8615993   6.7391673
  54.1916993  87.8175993   9.4071673  55.0326993  87.8805993   9.1851673
  54.1546993  88.2145993  10.1831673  54.3106993  87.8855993   9.4891673
  56.1546993  83.3285993   4.1561673  56.3266993  83.1185993   4.9851673
  55.4996993  82.7945993   3.9401673  56.0836993  83.2185993   4.2471673
  62.3826993  77.2425993   7.6711673  62.2876993  77.5615993   8.4771673
  61.7896993  76.6035993   7.6331673  62.2806993  77.1945993   7.7851673
  56.9046993  83.2665993   6.7461673  56.9576993  84.1135993   6.9481673
  56.6196993  82.8965993   7.4831673  56.8706993  83.3365993   6.8841673
  63.0816993  83.9615993   5.8761673  62.5676993  83.5495993   6.4471673
  62.9556993  84.8055993   6.0571673  62.9876993  84.0255993   5.9871673
  49.7256993  87.6375993  12.9571673  50.4816993  87.9865993  13.2151673
  49.9026993  86.7845993  12.9001673  49.8636993  87.5625993  12.9871673
  66.1026993  77.4225993   8.8151673  66.8746993  77.1975993   9.1521673
  65.6276993  77.6395993   9.5151673  66.1466993  77.4215993   8.9681673
  51.7876993  77.8075993   4.8671673  52.6306993  78.0275993   4.8241673
  51.3986993  78.3805993   4.3361673  51.8546993  77.9245993   4.7821673
  49.9946993  85.7825993   2.8891673  49.3276993  86.2705993   3.1651673
  50.6746993  86.3275993   2.9181673  49.9966993  85.9345993   2.9341673
  57.6416993  79.4925993  12.9851673  57.1576993  80.0695993  13.4271673
  57.6136993  79.7875993  12.1641673  57.5656993  79.6215993  12.9291673
  68.7396993  80.1765993   7.5971673  68.9546993  79.3765993   7.3211673
  67.8896993  80.2365993   7.4081673  68.6456993  80.0675993   7.5281673
  54.4366993  85.6305993   4.6561673  54.9036993  85.9195993   5.3341673
  55.0086993  85.1525993   4.2021673  54.5906993  85.6025993   4.6891673
  62.8726993  77.6445993   2.3931673  63.2166993  77.7965993   3.1801673
  62.4196993  76.9065993   2.5061673  62.8566993  77.5575993   2.5261673
  51.0026993  83.3005993   3.2001673  51.4336993  83.1715993   2.4531673
  50.7976993  84.1485993   3.1741673  51.0356993  83.4065993   3.0861673
  53.2166993  80.2995993  11.3441673  52.6806993  79.7935993  11.8121673
  53.2366993  79.9095993  10.5641673  53.1396993  80.1665993  11.2981673
  53.8686993  81.5265993   3.0831673  53.0876993  81.4675993   2.7001673
  53.9406993  80.7745993   3.5201673  53.7636993  81.4075993   3.0911673
  54.2986993  81.2635993   6.5511673  54.3236993  80.5885993   6.0001673
  53.6526993  81.7595993   6.2391673  54.2076993  81.2365993   6.4241673
  64.1936993  78.9765993   4.9471673  63.5316993  79.3045993   5.4101673
  64.3806993  79.6105993   4.3781673  64.1236993  79.1185993   4.9311673
  60.8386993  74.8825993   8.3761673  60.9876993  74.0575993   8.1331673
  61.2176993  74.9375993   9.1601673  60.9166993  74.7685993   8.4561673
  52.0976993  82.6185993  12.1101673  52.0606993  83.1195993  11.3961673
  52.4286993  81.8665993  11.8151673  52.1406993  82.5805993  11.9611673
  63.7006993  84.8235993  10.3681673  64.1846993  85.5415993  10.4661673
  64.0946993  84.3965993   9.7171673  63.8306993  84.8665993  10.2861673
  57.9966993  87.6685993  11.5451673  58.3506993  87.4905993  12.3221673
  57.5606993  86.9395993  11.3461673  57.9846993  87.5345993  11.6311673
  58.9686993  78.4155993   4.1831673  59.4486993  79.1145993   4.3911673
  59.3416993  77.7685993   4.6341673  59.0946993  78.4235993   4.2801673
  62.1746993  88.5205993   4.2821673  61.5716993  88.2245993   3.7251673
  62.7196993  88.9725993   3.7731673  62.1656993  88.5435993   4.1241673
  62.1876993  85.3715993   3.6821673  61.3906993  85.5955993   3.9561673
  62.4456993  84.7775993   4.2671673  62.1076993  85.3165993   3.8091673
  65.4476993  83.3695993   8.5281673  65.5026993  83.4945993   7.6661673
  66.2006993  83.6895993   8.8301673  65.5666993  83.4345993   8.4451673
  66.4796993  73.6675993  11.5151673  65.8426993  73.2675993  11.0731673
  66.5056993  73.2365993  12.2731673  66.3896993  73.5455993  11.5611673
  61.1786993  83.1755993   8.1281673  61.0236993  83.7855993   8.7321673
  61.7126993  82.6175993   8.5341673  61.2346993  83.1835993   8.2771673
  64.7886993  85.9045993   4.6551673  64.3096993  86.2025993   3.9891673
  64.4326993  85.1285993   4.8331673  64.6656993  85.8335993   4.5831673
  58.7856993  83.6225993   3.2171673  57.9386993  83.4285993   3.2981673
  59.1096993  83.4575993   4.0101673  58.7076993  83.5695993   3.3461673
  52.6336993  83.3155993   5.5331673  53.3556993  83.8035993   5.4961673
  52.3636993  83.2855993   4.7041673  52.7006993  83.3835993   5.4051673
  55.8636993  78.4865993   2.2681673  56.7096993  78.2965993   2.3661673
  55.4936993  77.7095993   2.1301673  55.9336993  78.3435993   2.2621673
  65.7196993  82.8465993   5.7741673  65.7126993  82.0705993   6.1721673
  64.8786993  83.0805993   5.7671673  65.5946993  82.7665993   5.8321673
  52.0286993  84.3675993   9.8111673  51.6076993  83.8495993   9.2501673
  51.6766993  85.1535993   9.6681673  51.9146993  84.4075993   9.7071673
  66.9756993  82.9175993   3.2111673  66.6896993  83.3185993   3.9311673
  67.8356993  82.8555993   3.3381673  67.0606993  82.9675993   3.3361673
  64.6376993  76.8415993  11.7511673  64.1126993  77.3005993  12.2751673
  64.2766993  76.0465993  11.7451673  64.5066993  76.7915993  11.8271673
  50.1446993  75.6895993   3.6551673  50.1886993  76.0335993   2.8541673
  50.8996993  75.9265993   4.0221673  50.2626993  75.7755993   3.5911673
  68.1066993  88.5505993   3.7401673  68.3966993  88.8075993   2.9591673
  68.8016993  88.6465993   4.2591673  68.2526993  88.6025993   3.7011673
  63.1296993  80.4105993  11.8271673  63.2026993  80.5145993  12.6901673
  62.4956993  80.9685993  11.6061673  63.0466993  80.5085993  11.9221673
  65.3976993  80.7295993  10.1921673  65.7166993  81.5155993  10.3951673
  65.0276993  80.4595993  10.9351673  65.3906993  80.8055993  10.3321673
  68.0956993  81.2715993  12.9271673  68.0436993  80.9305993  12.1261673
  68.8326993  81.7385993  12.9051673  68.1966993  81.2905993  12.8051673
  67.6336993  84.9475993   9.1331673  68.2616993  84.3985993   8.8771673
  67.5726993  85.5125993   8.4711673  67.7176993  84.9505993   8.9971673
  56.7676993  86.1785993   6.4291673  56.4696993  86.7705993   6.9961673
  56.8226993  86.6205993   5.6801673  56.7316993  86.3315993   6.4021673
  54.7466993  85.1285993   9.8271673  53.9406993  84.8385993   9.9941673
  54.6576993  85.9965993   9.8331673  54.6146993  85.2135993   9.8521673
  64.1056993  75.3175993   8.8421673  64.8496993  75.7695993   8.7791673
  63.5396993  75.7875993   8.3731673  64.1326993  75.4545993   8.7641673
  59.2836993  82.6015993   5.9201673  59.7596993  82.9755993   6.5481673
  58.4606993  82.7355993   6.1791673  59.2326993  82.6765993   6.0511673
  55.9936993  78.2045993   8.6611673  56.1546993  77.4605993   9.0881673
  55.9486993  77.9555993   7.8261673  56.0106993  78.0575993   8.6011673
  65.3906993  73.2975993   6.5121673  65.1106993  74.1225993   6.4681673
  66.1066993  73.3505993   7.0081673  65.4556993  73.4275993   6.5791673
  57.7456993  74.0125993   8.5411673  58.4506993  74.3325993   8.1391673
  57.9866993  73.2055993   8.7681673  57.8846993  73.9405993   8.5151673
  56.7306993  88.2225993   4.5371673  56.1066993  88.8045993   4.3551673
  56.9786993  87.9365993   3.7511673  56.6746993  88.2665993   4.3941673
  61.0396993  84.8565993  11.5261673  61.7966993  85.1425993  11.2001673
  60.4926993  84.9085993  10.8481673  61.0706993  84.9065993  11.3771673
  64.9486993  87.4065993  10.0301673  65.2946993  87.6765993  10.7841673
  65.2426993  87.9885993   9.4501673  65.0436993  87.5325993  10.0561673
  54.2546993  79.0655993   4.6021673  54.6946993  78.9625993   3.8561673
  54.7996993  78.7525993   5.2071673  54.3996993  79.0045993   4.5811673
  62.2706993  78.1675993  10.1941673  61.6226993  78.6375993  10.5421673
  62.8356993  78.0785993  10.8531673  62.2586993  78.2235993  10.3431673
  61.9586993  79.7045993   6.4921673  62.2606993  80.1245993   7.1951673
  61.9946993  78.8645993   6.7241673  62.0086993  79.6425993   6.6301673
  57.8016993  74.0505993   4.6491673  56.9756993  73.9015993   4.8861673
  57.7616993  74.0855993   3.7781673  57.6736993  74.0335993   4.5551673
  59.4426993  85.0905993   9.4371673  58.6476993  85.0265993   9.7881673
  59.5136993  85.9375993   9.2421673  59.3356993  85.2055993   9.4601673
  50.3666993  74.4485993  10.6841673  50.2266993  75.2435993  10.3531673
  49.5806993  74.2055993  10.9731673  50.2296993  74.5305993  10.6781673
  59.9316993  87.7375993   8.5451673  60.6186993  87.6235993   9.0701673
  60.0656993  88.5285993   8.2011673  60.0526993  87.8375993   8.5721673
  68.1076993  80.3465993  10.3561673  67.2526993  80.2245993  10.4821673
  68.2606993  79.9515993   9.5931673  68.0036993  80.2695993  10.2621673
  62.6206993  81.0115993   8.9321673  62.3656993  80.2925993   9.3541673
  63.4416993  81.1275993   9.2021673  62.7046993  80.9225993   9.0341673
  60.5546993  82.2015993  12.1191673  60.8776993  82.8875993  11.6871673
  59.8506993  82.5245993  12.5211673  60.4976993  82.3505993  12.1141673
  60.3396993  85.6655993   5.9781673  59.6456993  86.0675993   6.3211673
  61.0166993  86.0985993   6.3171673  60.3366993  85.7885993   6.0791673
  65.7166993  88.2585993  12.5581673  66.4926993  87.8685993  12.6411673
  65.2476993  87.9225993  13.2131673  65.7616993  88.1515993  12.6671673
  53.4076993  79.2035993   8.3251673  53.7826993  79.8225993   7.8381673
  54.0816993  78.7295993   8.6101673  53.5626993  79.2255993   8.2951673
  51.1826993  77.6515993   7.6001673  51.2596993  77.4825993   6.7471673
  51.9286993  78.0575993   7.7971673  51.3036993  77.6865993   7.5031673
  53.7366993  75.0615993  10.0111673  53.6556993  74.2175993  10.2171673
  53.4226993  75.1055993   9.1981673  53.6786993  74.9435993   9.9211673
  65.8436993  80.4375993   7.3961673  65.8416993  79.5745993   7.5201673
  65.9106993  80.7615993   8.2031673  65.8536993  80.3575993   7.5331673
  50.5796993  82.8775993   7.8241673  50.8996993  83.0965993   7.0431673
  50.4796993  82.0125993   7.7691673  50.6116993  82.7825993   7.7011673
  61.7226993  75.2375993  11.1781673  61.8146993  75.9495993  11.6721673
  61.0856993  74.7925993  11.5751673  61.6416993  75.2765993  11.3101673
  64.3146993  75.9435993   4.8321673  65.1696993  76.0425993   4.9771673
  63.9456993  76.4965993   5.3971673  64.3866993  76.0405993   4.9371673
  55.3426993  82.1695993   9.2091673  54.9466993  82.9435993   9.2841673
  54.9366993  81.7965993   8.5331673  55.2246993  82.2285993   9.1201673
  64.6186993  81.2235993   3.3231673  65.2846993  81.7645993   3.4831673
  64.2736993  81.5345993   2.5841673  64.6656993  81.3495993   3.2381673
  55.7716993  75.1465993   6.6591673  54.9076993  75.2305993   6.7391673
  55.9916993  74.6325993   7.3281673  55.6766993  75.0835993   6.7701673
  67.7896993  73.7815993   7.9881673  67.7376993  73.7375993   8.8581673
  68.4766993  73.2785993   7.7981673  67.8836993  73.7015993   8.0881673
  59.8746993  75.8945993   5.0331673  59.1376993  75.4405993   5.1461673
  60.4456993  75.4925993   5.5561673  59.8496993  75.7675993   5.1271673
  62.6066993  86.7425993   6.8211673  62.8126993  87.0435993   7.6131673
  62.5456993  87.4645993   6.3361673  62.6276993  86.8935993   6.8661673
  57.3776993  80.2235993  10.2371673  57.0556993  79.6475993   9.6671673
  57.0186993  80.9785993   9.9911673  57.2776993  80.2495993  10.1171673
  67.4186993  85.3815993   6.2791673  67.3866993  84.5195993   6.1441673
  66.7256993  85.6835993   5.8451673  67.3116993  85.2985993   6.1951673
  65.5236993  88.6415993   5.0761673  66.0506993  88.5585993   4.3851673
  65.1326993  87.8635993   5.1301673  65.5436993  88.5145993   4.9821673
  52.9916993  75.2295993   7.3071673  52.6486993  74.4625993   7.0731673
  52.2966993  75.7535993   7.3711673  52.8386993  75.1935993   7.2821673
  62.0376993  74.0855993   4.2841673  62.7076993  74.6295993   4.4111673
  61.5346993  74.5095993   3.7111673  62.0626993  74.2285993   4.2181673
  61.3966993  79.8935993   1.7771673  61.9476993  79.2865993   2.0771673
  60.9716993  80.1565993   2.4921673  61.4156993  79.8425993   1.9261673
  51.3326993  86.9515993   8.7741673  50.7586993  87.3675993   9.2831673
  52.0656993  87.4165993   8.8691673  51.3566993  87.0815993   8.8631673
  66.6406993  83.0975993  11.4901673  67.2746993  82.9275993  12.0641673
  67.0576993  83.5005993  10.8381673  66.7956993  83.1325993  11.4791673
  67.2656993  77.6615993  12.2281673  67.0696993  78.3055993  12.7831673
  66.5436993  77.1715993  12.2201673  67.1306993  77.6845993  12.3091673
  67.1646993  78.6025993   5.1991673  66.3316993  78.8525993   5.1271673
  67.1086993  77.7625993   5.4281673  67.0336993  78.5155993   5.2221673
  56.4246993  75.5905993  10.3931673  56.6586993  75.0145993   9.7801673
  55.5826993  75.4095993  10.5341673  56.3346993  75.4785993  10.3231673
  64.0516993  83.2085993  12.8451673  64.9226993  83.1725993  12.8091673
  63.8326993  83.6285993  12.1131673  64.1486993  83.2645993  12.7321673
  60.8156993  55.3154913  75.7791313  60.5706993  55.8034913  75.0991313
  61.6786993  55.2424913  75.6791313  60.9066993  55.3764913  75.6641313
  60.6246993  62.2314913  80.4501313  60.1006993  62.8274913  80.8131313
  61.0216993  61.8634913  81.1341313  60.6056993  62.2654913  80.6051313
  50.4936993  66.3714913  75.9061313  50.0526993  66.4894913  76.6491313
  50.2106993  65.5964913  75.6211313  50.3866993  66.2744913  75.9741313
  66.7686993  69.6724913  73.4211313  67.4696993  69.1534913  73.4171313
  66.1816993  69.2274913  72.9521313  66.7856993  69.5294913  73.3511313
  50.2366993  60.1634913  72.4131313  49.4586993  60.3254913  72.0531313
  50.2756993  59.2924913  72.4351313  50.1276993  60.0584913  72.3631313
  53.3756993  65.4264913  71.0851313  52.9836993  65.0554913  70.3991313
  53.2956993  64.8284913  71.7141313  53.3056993  65.2834913  71.0761313
  63.2956993  63.2984913  77.1261313  63.3756993  63.3024913  76.2571313
  62.7116993  62.6664913  77.2751313  63.2206993  63.2054913  77.0201313
  53.0026993  67.0674913  74.9851313  53.6106993  66.8974913  75.5881313
  52.2516993  66.9274913  75.4061313  52.9816993  67.0214913  75.1361313
  57.2846993  56.4024913  74.9341313  57.2146993  57.0794913  74.3881313
  58.0256993  56.0144913  74.6851313  57.3836993  56.4454913  74.8161313
  51.8936993  70.1584913  71.0621313  52.3606993  70.2424913  70.3301313
  52.3486993  69.5804913  71.5311313  52.0296993  70.0854913  71.0231313
  51.8796993  63.6274913  76.3631313  51.4176993  63.2354913  75.7361313
  52.5796993  63.1144913  76.4551313  51.9146993  63.4944913  76.2841313
  53.8806993  61.7274913  76.3861313  54.6976993  61.5404913  76.6291313
  53.4036993  61.1134913  76.7821313  53.9306993  61.6094913  76.4811313
  58.0846993  67.7084913  78.9961313  58.4326993  66.9094913  79.0261313
  58.7496993  68.2124913  78.7411313  58.2346993  67.6644913  78.9631313
  58.1416993  67.1574913  75.2071313  58.4726993  66.5134913  75.6931313
  58.3816993  66.9464913  74.3961313  58.2256993  67.0314913  75.1591313
  54.4776993  56.8214913  75.6521313  54.1816993  57.3224913  75.0021313
  55.3446993  56.8994913  75.5951313  54.5616993  56.9074913  75.5481313
  57.4566993  55.9634913  77.8751313  57.5296993  56.8234913  78.0041313
  57.4186993  55.8884913  77.0071313  57.4616993  56.0794913  77.7661313
  62.1296993  58.8894913  70.1741313  61.6796993  59.5704913  70.4811313
  62.2436993  58.3854913  70.8771313  62.0806993  58.9154913  70.3231313
  50.3356993  61.3884913  79.3761313  50.0796993  62.2194913  79.3011313
  49.6716993  61.0054913  79.7931313  50.1996993  61.4544913  79.4271313
  50.2456993  71.0984913  77.2761313  49.6536993  71.6564913  76.9631313
  50.6716993  70.8294913  76.5641313  50.2216993  71.1404913  77.1251313
  56.0856993  68.9424913  74.7561313  55.5066993  68.6674913  75.3481313
  56.7096993  68.3334913  74.7811313  56.0926993  68.8124913  74.8471313
  62.2286993  71.2304913  72.2781313  62.9556993  71.7024913  72.3801313
  62.4576993  70.4364913  72.5581313  62.3706993  71.1834913  72.3351313
  60.3966993  71.6224913  74.2681313  60.6106993  72.1494913  74.9301313
  61.1636993  71.4484913  73.8891313  60.5416993  71.6744913  74.3101313
  53.3646993  56.2054913  79.8671313  52.8436993  55.5774913  79.5591313
  53.9556993  55.7684913  80.3381313  53.3756993  56.0474913  79.8911313
  51.7906993  69.7684913  75.2071313  52.4466993  69.1934913  75.2221313
  52.1796993  70.5174913  74.9861313  51.9456993  69.7934913  75.1771313
  67.5236993  58.8624913  76.4691313  67.1776993  59.5404913  76.8951313
  66.8876993  58.2644913  76.4851313  67.3786993  58.8744913  76.5341313
  52.6086993  68.2554913  78.7071313  53.0316993  67.8994913  78.0331313
  52.9326993  67.8334913  79.3991313  52.7186993  68.1404913  78.7101313
  55.8396993  71.1074913  78.0031313  56.6836993  71.2114913  77.8081313
  55.5426993  71.9254913  78.0711313  55.9206993  71.2434913  77.9841313
  59.6466993  60.5044913  76.0901313  59.9336993  60.2724913  75.3001313
  60.3786993  60.5834913  76.5591313  59.7966993  60.4814913  76.0431313
  60.3686993  60.8434913  71.2111313  60.6496993  61.6314913  71.4601313
  59.5926993  61.0084913  70.8481313  60.2956993  60.9844913  71.1941313
  64.4096993  72.8174913  72.6781313  65.0746993  72.6694913  72.1331313
  64.7696993  72.7344913  73.4681313  64.5616993  72.7834913  72.7141313
  59.2276993  69.0144913  71.0271313  59.0466993  69.5594913  71.6841313
  59.9936993  69.3044913  70.7261313  59.3136993  69.1384913  71.0801313
  62.7346993  56.9104913  72.0811313  63.2746993  56.2284913  72.1571313
  62.7966993  57.3084913  72.8551313  62.8236993  56.8684913  72.2071313
  50.6886993  58.0784913  74.6501313  50.5746993  57.2144913  74.6811313
  50.2136993  58.3724913  75.3201313  50.6016993  57.9944913  74.7531313
  59.9926993  59.2864913  73.3951313  59.4846993  58.6244913  73.1411313
  60.0446993  59.7904913  72.6851313  59.9256993  59.2634913  73.2531313
  59.9926993  56.2274913  73.2861313  59.5376993  55.8254913  72.6601313
  60.7656993  56.3824913  72.9111313  60.0396993  56.1914913  73.1381313
  66.8186993  72.5844913  76.6761313  66.3636993  73.3014913  76.8771313
  66.2046993  72.0134913  76.4341313  66.6606993  72.6064913  76.6701313
  58.5906993  58.5944913  77.8081313  58.6646993  59.1624913  77.1501313
  58.7116993  59.0864913  78.5181313  58.6186993  58.7514913  77.8161313
  63.8156993  68.4294913  76.2201313  64.5166993  67.9474913  76.4091313
  63.1556993  67.8604913  76.2651313  63.8216993  68.2744913  76.2541313
  53.1986993  54.4174913  76.1561313  53.7346993  55.1054913  76.1461313
  53.2016993  54.1434913  75.3281313  53.2776993  54.4784913  76.0321313
  56.1546993  64.8504913  80.1811313  56.3266993  64.6404913  81.0101313
  55.4996993  64.3164913  79.9651313  56.0836993  64.7404913  80.2721313
  63.6386993  54.7084913  76.5321313  63.6876993  54.3904913  77.3431313
  63.9616993  54.0644913  76.0391313  63.6936993  54.5664913  76.5791313
  53.6466993  58.2274913  77.8101313  53.9186993  57.7974913  77.1021313
  53.4706993  57.5914913  78.3811313  53.6606993  58.0704913  77.7901313
  66.3346993  65.9224913  72.0281313  66.4536993  65.6354913  72.8431313
  67.1416993  65.9434913  71.6981313  66.4706993  65.8834913  72.1001313
  53.4706993  65.6544913  77.3591313  54.3216993  65.5744913  77.1861313
  53.1136993  64.9724913  76.9471313  53.5436993  65.5414913  77.2721313
  52.2376993  72.3794913  78.5961313  51.5646993  71.8814913  78.3511313
  52.6406993  72.5644913  77.8451313  52.1976993  72.3334913  78.4491313
  51.7876993  59.3294913  80.8921313  52.6306993  59.5494913  80.8491313
  51.3986993  59.9024913  80.3611313  51.8546993  59.4464913  80.8071313
  64.2296993  62.4594913  71.6131313  64.0096993  63.1904913  71.1911313
  63.7816993  62.5104913  72.3601313  64.1306993  62.5744913  71.6611313
  55.8386993  65.6614913  75.5941313  56.5516993  66.1564913  75.6841313
  56.0606993  65.0944913  74.9681313  55.9766993  65.6504913  75.5151313
  68.4166993  57.3204913  71.0661313  67.7546993  56.7524913  71.0891313
  68.2236993  57.8324913  70.3861313  68.2906993  57.3124913  70.9691313
  49.9946993  67.3044913  78.9141313  49.3276993  67.7924913  79.1901313
  50.6746993  67.8494913  78.9431313  49.9966993  67.4564913  78.9591313
  50.0606993  63.9884913  74.0171313  49.8756993  63.1494913  74.1691313
  50.7196993  63.9524913  73.4471313  50.1306993  63.8594913  73.9551313
  66.4186993  56.8784913  73.3451313  67.1646993  56.4714913  73.5441313
  66.6816993  57.5934913  72.9201313  66.5676993  56.9244913  73.3121313
  60.3616993  69.3644913  77.9211313  59.8386993  69.9984913  77.6281313
  60.6716993  69.0004913  77.1921313  60.3296993  69.4044913  77.7701313
  50.2326993  68.1524913  73.5921313  50.7846993  68.7214913  73.9561313
  50.0006993  67.6374913  74.2571313  50.2796993  68.1604913  73.7441313
  54.4366993  67.1524913  80.6811313  54.9036993  67.4414913  81.3591313
  55.0086993  66.6744913  80.2271313  54.5906993  67.1244913  80.7141313
  62.8726993  59.1664913  78.4181313  63.2166993  59.3184913  79.2051313
  62.4196993  58.4284913  78.5311313  62.8566993  59.0794913  78.5511313
  50.0626993  66.6014913  71.2201313  50.8186993  66.1694913  71.2781313
  50.0776993  67.1334913  71.9111313  50.1766993  66.6164913  71.3311313
  51.0026993  64.8224913  79.2251313  51.4336993  64.6934913  78.4781313
  50.7976993  65.6704913  79.1991313  51.0356993  64.9284913  79.1111313
  57.3486993  58.3864913  72.8751313  57.3466993  58.2694913  72.0101313
  57.1676993  59.2344913  72.9671313  57.3216993  58.4944913  72.7611313
  55.0866993  68.3384913  77.5071313  55.2126993  69.1814913  77.6941313
  55.7546993  67.9394913  77.9031313  55.2046993  68.4044913  77.5931313
  53.7016993  61.2184913  72.5091313  53.5736993  60.7704913  73.2471313
  53.1196993  60.8764913  71.9571313  53.5966993  61.1014913  72.5371313
  53.8686993  63.0484913  79.1081313  53.0876993  62.9894913  78.7251313
  53.9406993  62.2964913  79.5451313  53.7636993  62.9294913  79.1161313
  64.1936993  60.4984913  80.9721313  63.5316993  60.8264913  81.4351313
  64.3806993  61.1324913  80.4031313  64.1236993  60.6404913  80.9561313
  62.3866993  58.4674913  74.4831313  62.8766993  59.1844913  74.4061313
  61.5966993  58.7284913  74.2201313  62.3426993  58.6114913  74.4331313
  58.9686993  59.9374913  80.2081313  59.4486993  60.6364913  80.4161313
  59.3416993  59.2904913  80.6591313  59.0946993  59.9454913  80.3051313
  61.1576993  63.1064913  72.4821313  61.1496993  63.8284913  71.9921313
  60.5186993  63.2414913  73.0591313  61.0626993  63.2334913  72.4951313
  66.1296993  66.9764913  76.4631313  66.4856993  66.6264913  77.1781313
  66.1216993  66.3154913  75.8931313  66.1816993  66.8264913  76.4841313
  62.1746993  70.0424913  80.3071313  61.5716993  69.7464913  79.7501313
  62.7196993  70.4944913  79.7981313  62.1656993  70.0654913  80.1491313
  62.1876993  66.8934913  79.7071313  61.3906993  67.1174913  79.9811313
  62.4456993  66.2994913  80.2921313  62.1076993  66.8384913  79.8341313
  56.0796993  71.7054913  74.1551313  55.9326993  70.9294913  74.5261313
  56.7686993  71.5584913  73.6401313  56.1596993  71.5684913  74.1341313
  55.7506993  55.4484913  72.1431313  55.8476993  55.3414913  73.0041313
  55.0426993  55.9544913  72.0781313  55.6606993  55.5074913  72.2611313
  58.3716993  71.2214913  72.5571313  58.9936993  71.3844913  73.1471313
  58.4076993  71.9124913  72.0251313  58.4686993  71.3474913  72.5661313
  52.8726993  63.7554913  73.3861313  53.1966993  62.9764913  73.1641313
  53.5186993  64.1234913  73.8411313  53.0156993  63.6944913  73.4201313
  49.8696993  55.4164913  74.3541313  49.9986993  54.7084913  73.8621313
  49.5026993  55.0984913  75.0791313  49.8346993  55.2644913  74.3891313
  59.5626993  63.0974913  74.8111313  59.6216993  63.7474913  75.3901313
  59.3736993  62.4014913  75.3021313  59.5436993  63.0904913  74.9691313
  64.7886993  67.4264913  80.6801313  64.3096993  67.7244913  80.0141313
  64.4326993  66.6504913  80.8581313  64.6656993  67.3554913  80.6081313
  54.0586993  57.6144913  71.3231313  53.5476993  57.6674913  70.6171313
  54.8426993  57.8544913  71.0271313  54.0986993  57.6574913  71.1751313
  58.7856993  65.1444913  79.2421313  57.9386993  64.9504913  79.3231313
  59.1096993  64.9794913  80.0351313  58.7076993  65.0914913  79.3711313
  55.5376993  71.8744913  70.1281313  55.9766993  71.1774913  70.4161313
  55.7446993  72.4984913  70.7011313  55.6336993  71.8634913  70.2551313
  52.6336993  64.8374913  81.5581313  53.3556993  65.3254913  81.5211313
  52.3636993  64.8074913  80.7291313  52.7006993  64.9054913  81.4301313
  55.8636993  60.0084913  78.2931313  56.7096993  59.8184913  78.3911313
  55.4936993  59.2314913  78.1551313  55.9336993  59.8654913  78.2871313
  68.4806993  71.5924913  72.6201313  69.1746993  71.1254913  72.3721313
  67.9416993  70.9944913  72.9571313  68.5036993  71.4344913  72.6331313
  50.6846993  61.3464913  74.9481313  51.1736993  61.0544913  75.6091313
  50.8136993  60.7534913  74.3211313  50.7756993  61.2154913  74.9531313
  55.2096993  62.7804913  70.4341313  54.5996993  62.3754913  70.9081313
  54.8236993  62.8984913  69.6611313  55.0626993  62.7374913  70.3901313
  66.9756993  64.4394913  79.2361313  66.6896993  64.8404913  79.9561313
  67.8356993  64.3774913  79.3631313  67.0606993  64.4894913  79.3611313
  56.6646993  61.2414913  73.1441313  56.9366993  62.0674913  73.2111313
  55.8016993  61.3164913  73.0481313  56.5776993  61.3744913  73.1391313
  50.1446993  57.2114913  79.6801313  50.1886993  57.5554913  78.8791313
  50.8996993  57.4484913  80.0471313  50.2626993  57.2974913  79.6161313
  68.1066993  70.0724913  79.7651313  68.3966993  70.3294913  78.9841313
  68.8016993  70.1684913  80.2841313  68.2526993  70.1244913  79.7261313
  64.7116993  68.6754913  71.7471313  65.0456993  67.8694913  71.7821313
  63.9566993  68.6034913  72.1771313  64.6496993  68.5454913  71.8161313
  65.1936993  60.5094913  77.4061313  64.4486993  60.1864913  77.7241313
  65.1956993  61.3354913  77.6861313  65.0836993  60.5834913  77.4941313
  62.0856993  66.5504913  71.1501313  62.7696993  66.0364913  70.9811313
  61.6686993  66.5964913  70.3851313  62.1246993  66.4814913  71.0121313
  58.5476993  71.5164913  77.1731313  59.0936993  72.1954913  77.2271313
  58.1976993  71.5984913  76.3781313  58.5766993  71.6294913  77.0631313
  56.7306993  69.7444913  80.5621313  56.1066993  70.3264913  80.3801313
  56.9786993  69.4584913  79.7761313  56.6746993  69.7884913  80.4191313
  66.8116993  61.0744913  71.3941313  67.1896993  61.7514913  70.9941313
  65.9696993  61.2984913  71.4251313  66.7426993  61.2074913  71.3391313
  58.3246993  64.5204913  70.4771313  57.5196993  64.3434913  70.1921313
  58.2916993  65.3714913  70.6691313  58.2006993  64.6194913  70.4641313
  54.2546993  60.5874913  80.6271313  54.6946993  60.4844913  79.8811313
  54.7996993  60.2744913  81.2321313  54.3996993  60.5264913  80.6061313
  64.5066993  60.6734913  74.7691313  64.7136993  60.4724913  75.5931313
  65.2626993  60.9414913  74.4271313  64.6486993  60.6834913  74.8401313
  57.8016993  55.5724913  80.6741313  56.9756993  55.4234913  80.9111313
  57.7616993  55.6074913  79.8031313  57.6736993  55.5554913  80.5801313
  65.5286993  56.7564913  76.2431313  64.8146993  56.2854913  76.4141313
  65.3666993  57.0974913  75.4571313  65.3996993  56.7374913  76.1521313
  65.9716993  64.7004913  74.6231313  66.4476993  63.9714913  74.5751313
  65.1506993  64.4144913  74.5471313  65.9206993  64.5504913  74.6041313
  53.4306993  58.7144913  73.9341313  53.5566993  58.3854913  73.1361313
  52.6186993  58.4654913  74.1331313  53.3296993  58.6294913  73.8461313
  62.1876993  65.8674913  76.9781313  62.2636993  66.2084913  77.7771313
  62.3566993  65.0204913  77.0991313  62.2236993  65.7924913  77.1141313
  59.7096993  65.1414913  76.5431313  59.4116993  64.8264913  77.3001313
  60.4046993  65.6144913  76.7781313  59.7686993  65.1644913  76.6901313
  63.6386993  72.0974913  79.0731313  63.1876993  72.7404913  79.4521313
  64.3466993  72.0184913  79.5781313  63.6766993  72.1804913  79.2041313
  66.7416993  61.8134913  74.0651313  66.8446993  61.7554913  73.2011313
  67.4826993  61.4814913  74.3831313  66.8666993  61.7564913  73.9841313
  60.6616993  68.7784913  75.1721313  60.4566993  69.6114913  75.0131313
  59.8866993  68.3964913  75.2941313  60.5166993  68.8454913  75.1671313
  52.0356993  60.3354913  70.4671313  51.3636993  60.3494913  71.0231313
  52.1306993  59.4874913  70.2831313  51.9506993  60.2124913  70.5221313
  60.7166993  56.9494913  78.0571313  60.0166993  57.4674913  78.0011313
  60.7546993  56.5694913  77.2731313  60.6186993  56.9704913  77.9331313
  56.0236993  69.0404913  71.5811313  56.4646993  69.1204913  72.3291313
  55.2186993  68.8244913  71.8391313  55.9696993  69.0204913  71.7301313
  64.3146993  57.4654913  80.8571313  65.1696993  57.5644913  81.0021313
  63.9456993  58.0184913  81.4221313  64.3866993  57.5624913  80.9621313
  64.6186993  62.7454913  79.3481313  65.2846993  63.2864913  79.5081313
  64.2736993  63.0564913  78.6091313  64.6656993  62.8714913  79.2631313
  64.9316993  70.8114913  75.1551313  64.7576993  70.1574913  75.7051313
  65.6446993  70.5404913  74.7321313  65.0116993  70.6744913  75.1741313
  53.3526993  68.1104913  72.1821313  53.1086993  67.8034913  72.9621313
  53.3196993  67.4074913  71.6661313  53.3116993  67.9614913  72.2211313
  56.1716993  66.3554913  70.9251313  55.3536993  66.0874913  71.0651313
  56.1436993  67.2074913  71.1101313  56.0466993  66.4424913  70.9731313
  59.8746993  57.4164913  81.0581313  59.1376993  56.9624913  81.1711313
  60.4456993  57.0144913  81.5811313  59.8496993  57.2894913  81.1521313
  58.1736993  54.9974913  70.8891313  58.2516993  55.2444913  70.0561313
  57.4306993  55.3744913  71.1471313  58.0756993  55.0894913  70.8041313
  65.5236993  70.1634913  81.1011313  66.0506993  70.0804913  80.4101313
  65.1326993  69.3854913  81.1551313  65.5436993  70.0364913  81.0071313
  62.0376993  55.6074913  80.3091313  62.7076993  56.1514913  80.4361313
  61.5346993  56.0314913  79.7361313  62.0626993  55.7504913  80.2431313
  61.3966993  61.4154913  77.8021313  61.9476993  60.8084913  78.1021313
  60.9716993  61.6784913  78.5171313  61.4156993  61.3644913  77.9511313
  51.6446993  60.0654913  77.2881313  51.2766993  60.3674913  78.0191313
  52.1786993  59.4364913  77.5721313  51.6686993  60.0174913  77.4381313
  63.3666993  63.2464913  74.3641313  63.4346993  62.3964913  74.5451313
  62.5436993  63.3324913  74.0861313  63.2546993  63.1334913  74.3501313
  53.1186993  71.7404913  73.5741313  52.9736993  71.8964913  72.7281313
  53.9846993  71.8194913  73.6521313  53.2256993  71.7754913  73.4611313
  57.2856993  64.1374913  73.3021313  57.3856993  64.2764913  72.4471313
  58.1036993  64.0774913  73.5981313  57.4206993  64.1484913  73.2191313
  66.4456993  72.2014913  70.7821313  67.0826993  72.0674913  71.3631313
  66.1046993  71.4074913  70.6651313  66.4896993  72.0644913  70.8501313
  62.5206993  68.4664913  73.1041313  62.2696993  68.3384913  73.9301313
  62.2036993  67.7714913  72.6831313  62.4366993  68.3454913  73.1641313
  67.1646993  60.1244913  81.2241313  66.3316993  60.3744913  81.1521313
  67.1086993  59.2844913  81.4531313  67.0336993  60.0374913  81.2471313
  53.8056993  70.5554913  80.0511313  53.7266993  69.7454913  79.7351313
  53.3616993  71.0424913  79.4791313  53.7286993  70.5074913  79.9201313
  59.4066993  66.6744913  72.5341313  60.1236993  66.3274913  72.1781313
  59.3726993  67.4744913  72.1861313  59.5076993  66.7414913  72.4301313
  50.4336993  69.1064913  63.1548903  50.5626993  68.8264913  63.9708903
  49.8236993  68.5654913  62.8458903  50.3626993  68.9854913  63.2298903
  57.0076993  66.6314913  68.2218903  56.7716993  66.6284913  69.0618903
  56.2596993  66.4834913  67.7978903  56.8616993  66.6084913  68.2828903
  56.9896993  69.8234913  65.4848903  57.1276993  70.5834913  65.0778903
  57.7806993  69.4584913  65.5118903  57.1266993  69.8824913  65.4288903
  58.0846993  67.7084913  59.9898903  58.4326993  66.9094913  60.0198903
  58.7496993  68.2124913  59.7348903  58.2346993  67.6644913  59.9568903
  64.6676993  54.2484913  66.6538903  64.5096993  55.0174913  66.2718903
  63.8956993  54.0284913  66.9978903  64.5296993  54.3294913  66.6488903
  50.2456993  71.0984913  58.2698903  49.6536993  71.6564913  57.9568903
  50.6716993  70.8294913  57.5578903  50.2216993  71.1404913  58.1188903
  56.6706993  58.3384913  70.1588903  56.7876993  57.8844913  69.4228903
  56.9586993  59.1364913  69.9558903  56.7306993  58.3894913  70.0198903
  62.8356993  71.6324913  63.5668903  63.5796993  72.0884913  63.5568903
  62.7146993  71.4184913  62.7298903  62.9276993  71.6684913  63.4418903
  52.4036993  57.9354913  69.1428903  51.6256993  57.5454913  69.0708903
  52.8946993  57.5234913  68.5518903  52.3606993  57.8164913  69.0448903
  55.8396993  71.1074913  58.9968903  56.6836993  71.2114913  58.8018903
  55.5426993  71.9254913  59.0648903  55.9206993  71.2434913  58.9778903
  59.0526993  55.5784913  68.3108903  59.2306993  54.7694913  68.0358903
  58.9096993  56.0194913  67.5718903  59.0576993  55.5244913  68.1608903
  54.8376993  72.3264913  64.7368903  55.1296993  72.2594913  65.5568903
  54.2116993  71.7214913  64.6918903  54.7886993  72.2274913  64.8518903
  67.1986993  57.1854913  62.8318903  67.9556993  57.2574913  62.4038903
  67.2616993  56.4124913  63.2308903  67.3196993  57.0824913  62.8268903
  49.7516993  58.4834913  66.7288903  49.7476993  59.0704913  67.3748903
  50.3456993  58.7954913  66.1718903  49.8386993  58.6164913  66.7418903
  62.0896993  68.8174913  67.2708903  62.0556993  69.1994913  68.0548903
  62.9436993  68.7754913  67.0998903  62.2106993  68.8674913  67.3618903
  52.8306993  70.4884913  63.8588903  52.1326993  69.9804913  63.9848903
  53.0906993  70.2834913  63.0508903  52.7656993  70.3834913  63.7578903
  60.5416993  71.9814913  64.7688903  61.3096993  71.9014913  64.3628903
  59.9586993  71.8604913  64.1308903  60.5686993  71.9514913  64.6148903
  66.8186993  72.5844913  57.6698903  66.3636993  73.3014913  57.8708903
  66.2046993  72.0134913  57.4278903  66.6606993  72.6064913  57.6638903
  54.1916993  69.3394913  66.4258903  55.0326993  69.4024913  66.2038903
  54.1546993  69.7364913  67.2018903  54.3106993  69.4074913  66.5078903
  63.0816993  65.4834913  62.8948903  62.5676993  65.0714913  63.4658903
  62.9556993  66.3274913  63.0758903  62.9876993  65.5474913  63.0058903
  49.7256993  69.1594913  69.9758903  50.4816993  69.5084913  70.2338903
  49.9026993  68.3064913  69.9188903  49.8636993  69.0844913  70.0058903
  66.1026993  58.9444913  65.8338903  66.8746993  58.7194913  66.1708903
  65.6276993  59.1614913  66.5338903  66.1466993  58.9434913  65.9868903
  52.2376993  72.3794913  59.5898903  51.5646993  71.8814913  59.3448903
  52.6406993  72.5644913  58.8388903  52.1976993  72.3334913  59.4428903
  68.5686993  70.4314913  67.2758903  67.8866993  70.7414913  66.8288903
  68.1996993  69.9734913  67.9208903  68.4126993  70.4094913  67.3048903
  68.4166993  57.3204913  52.0598903  67.7546993  56.7524913  52.0828903
  68.2236993  57.8324913  51.3798903  68.2906993  57.3124913  51.9628903
  49.9946993  67.3044913  59.9078903  49.3276993  67.7924913  60.1838903
  50.6746993  67.8494913  59.9368903  49.9966993  67.4564913  59.9528903
  57.6416993  61.0144913  70.0038903  57.1576993  61.5914913  70.4458903
  57.6136993  61.3094913  69.1828903  57.5656993  61.1434913  69.9478903
  68.7396993  61.6984913  64.6158903  68.9546993  60.8984913  64.3398903
  67.8896993  61.7584913  64.4268903  68.6456993  61.5894913  64.5468903
  60.3616993  69.3644913  58.9148903  59.8386993  69.9984913  58.6218903
  60.6716993  69.0004913  58.1858903  60.3296993  69.4044913  58.7638903
  54.4366993  67.1524913  61.6748903  54.9036993  67.4414913  62.3528903
  55.0086993  66.6744913  61.2208903  54.5906993  67.1244913  61.7078903
  66.4026993  70.8134913  65.3658903  65.7316993  71.3274913  65.5838903
  66.4656993  70.9134913  64.5018903  66.3126993  70.9044913  65.2708903
  53.2166993  61.8214913  68.3628903  52.6806993  61.3154913  68.8308903
  53.2366993  61.4314913  67.5828903  53.1396993  61.6884913  68.3168903
  58.3986993  71.5624913  62.9618903  58.1216993  70.9214913  62.4388903
  58.1906993  72.2884913  62.5238903  58.3276993  71.5754913  62.8198903
  52.0976993  64.1404913  69.1288903  52.0606993  64.6414913  68.4148903
  52.4286993  63.3884913  68.8338903  52.1406993  64.1024913  68.9798903
  63.7006993  66.3454913  67.3868903  64.1846993  67.0634913  67.4848903
  64.0946993  65.9184913  66.7358903  63.8306993  66.3884913  67.3048903
  57.9966993  69.1904913  68.5638903  58.3506993  69.0124913  69.3408903
  57.5606993  68.4614913  68.3648903  57.9846993  69.0564913  68.6498903
  62.1746993  70.0424913  61.3008903  61.5716993  69.7464913  60.7438903
  62.7196993  70.4944913  60.7918903  62.1656993  70.0654913  61.1428903
  56.0796993  71.7054913  55.1488903  55.9326993  70.9294913  55.5198903
  56.7686993  71.5584913  54.6338903  56.1596993  71.5684913  55.1278903
  65.4476993  64.8914913  65.5468903  65.5026993  65.0164913  64.6848903
  66.2006993  65.2114913  65.8488903  65.5666993  64.9564913  65.4638903
  61.6386993  70.2404913  69.8238903  61.8026993  70.5234913  70.6328903
  61.9016993  70.9014913  69.3188903  61.7016993  70.3804913  69.8688903
  66.4796993  55.1894913  68.5338903  65.8426993  54.7894913  68.0918903
  66.5056993  54.7584913  69.2918903  66.3896993  55.0674913  68.5798903
  61.1786993  64.6974913  65.1468903  61.0236993  65.3074913  65.7508903
  61.7126993  64.1394913  65.5528903  61.2346993  64.7054913  65.2958903
  64.7886993  67.4264913  61.6738903  64.3096993  67.7244913  61.0078903
  64.4326993  66.6504913  61.8518903  64.6656993  67.3554913  61.6018903
  52.6336993  64.8374913  62.5518903  53.3556993  65.3254913  62.5148903
  52.3636993  64.8074913  61.7228903  52.7006993  64.9054913  62.4238903
  65.7196993  64.3684913  62.7928903  65.7126993  63.5924913  63.1908903
  64.8786993  64.6024913  62.7858903  65.5946993  64.2884913  62.8508903
  52.0286993  65.8894913  66.8298903  51.6076993  65.3714913  66.2688903
  51.6766993  66.6754913  66.6868903  51.9146993  65.9294913  66.7258903
  66.9756993  64.4394913  60.2298903  66.6896993  64.8404913  60.9498903
  67.8356993  64.3774913  60.3568903  67.0606993  64.4894913  60.3548903
  64.6376993  58.3634913  68.7698903  64.1126993  58.8224913  69.2938903
  64.2766993  57.5684913  68.7638903  64.5066993  58.3134913  68.8458903
  68.1066993  70.0724913  60.7588903  68.3966993  70.3294913  59.9778903
  68.8016993  70.1684913  61.2778903  68.2526993  70.1244913  60.7198903
  63.1296993  61.9324913  68.8458903  63.2026993  62.0364913  69.7088903
  62.4956993  62.4904913  68.6248903  63.0466993  62.0304913  68.9408903
  65.3976993  62.2514913  67.2108903  65.7166993  63.0374913  67.4138903
  65.0276993  61.9814913  67.9538903  65.3906993  62.3274913  67.3508903
  68.0956993  62.7934913  69.9458903  68.0436993  62.4524913  69.1448903
  68.8326993  63.2604913  69.9238903  68.1966993  62.8124913  69.8238903
  67.6336993  66.4694913  66.1518903  68.2616993  65.9204913  65.8958903
  67.5726993  67.0344913  65.4898903  67.7176993  66.4724913  66.0158903
  56.7676993  67.7004913  63.4478903  56.4696993  68.2924913  64.0148903
  56.8226993  68.1424913  62.6988903  56.7316993  67.8534913  63.4208903
  54.7466993  66.6504913  66.8458903  53.9406993  66.3604913  67.0128903
  54.6576993  67.5184913  66.8518903  54.6146993  66.7354913  66.8708903
  64.1056993  56.8394913  65.8608903  64.8496993  57.2914913  65.7978903
  63.5396993  57.3094913  65.3918903  64.1326993  56.9764913  65.7828903
  58.5476993  71.5164913  58.1668903  59.0936993  72.1954913  58.2208903
  58.1976993  71.5984913  57.3718903  58.5766993  71.6294913  58.0568903
  65.3906993  54.8194913  63.5308903  65.1106993  55.6444913  63.4868903
  66.1066993  54.8724913  64.0268903  65.4556993  54.9494913  63.5978903
  56.7306993  69.7444913  61.5558903  56.1066993  70.3264913  61.3738903
  56.9786993  69.4584913  60.7698903  56.6746993  69.7884913  61.4128903
  61.0396993  66.3784913  68.5448903  61.7966993  66.6644913  68.2188903
  60.4926993  66.4304913  67.8668903  61.0706993  66.4284913  68.3958903
  64.9486993  68.9284913  67.0488903  65.2946993  69.1984913  67.8028903
  65.2426993  69.5104913  66.4688903  65.0436993  69.0544913  67.0748903
  59.3836993  71.3934913  67.4358903  59.8616993  70.7934913  67.0198903
  59.0326993  70.9504913  68.1008903  59.4026993  71.2394913  67.4728903
  59.4426993  66.6124913  66.4558903  58.6476993  66.5484913  66.8068903
  59.5136993  67.4594913  66.2608903  59.3356993  66.7274913  66.4788903
  50.3666993  55.9704913  67.7028903  50.2266993  56.7654913  67.3718903
  49.5806993  55.7274913  67.9918903  50.2296993  56.0524913  67.6968903
  55.2726993  72.8194913  61.7728903  55.2836993  72.8784913  62.6428903
  54.8476993  72.0724913  61.6228903  55.2116993  72.7174913  61.8788903
  59.9316993  69.2594913  65.5638903  60.6186993  69.1454913  66.0888903
  60.0656993  70.0504913  65.2198903  60.0526993  69.3594913  65.5908903
  68.1076993  61.8684913  67.3748903  67.2526993  61.7464913  67.5008903
  68.2606993  61.4734913  66.6118903  68.0036993  61.7914913  67.2808903
  62.6206993  62.5334913  65.9508903  62.3656993  61.8144913  66.3728903
  63.4416993  62.6494913  66.2208903  62.7046993  62.4444913  66.0528903
  52.0366993  72.3174913  67.2148903  51.3826993  71.7484913  67.3128903
  51.6616993  73.0904913  67.3658903  51.8846993  72.3474913  67.2518903
  60.5546993  63.7234913  69.1378903  60.8776993  64.4094913  68.7058903
  59.8506993  64.0464913  69.5398903  60.4976993  63.8724913  69.1328903
  63.6386993  72.0974913  60.0668903  63.1876993  72.7404913  60.4458903
  64.3466993  72.0184913  60.5718903  63.6766993  72.1804913  60.1978903
  60.3396993  67.1874913  62.9968903  59.6456993  67.5894913  63.3398903
  61.0166993  67.6204913  63.3358903  60.3366993  67.3104913  63.0978903
  65.7166993  69.7804913  69.5768903  66.4926993  69.3904913  69.6598903
  65.2476993  69.4444913  70.2318903  65.7616993  69.6734913  69.6858903
  65.8436993  61.9594913  64.4148903  65.8416993  61.0964913  64.5388903
  65.9106993  62.2834913  65.2218903  65.8536993  61.8794913  64.5518903
  50.5796993  64.3994913  64.8428903  50.8996993  64.6184913  64.0618903
  50.4796993  63.5344913  64.7878903  50.6116993  64.3044913  64.7198903
  61.7226993  56.7594913  68.1968903  61.8146993  57.4714913  68.6908903
  61.0856993  56.3144913  68.5938903  61.6416993  56.7984913  68.3288903
  64.9316993  70.8114913  56.1488903  64.7576993  70.1574913  56.6988903
  65.6446993  70.5404913  55.7258903  65.0116993  70.6744913  56.1678903
  67.7896993  55.3034913  65.0068903  67.7376993  55.2594913  65.8768903
  68.4766993  54.8004913  64.8168903  67.8836993  55.2234913  65.1068903
  62.6066993  68.2644913  63.8398903  62.8126993  68.5654913  64.6318903
  62.5456993  68.9864913  63.3548903  62.6276993  68.4154913  63.8848903
  62.1406993  72.4784913  68.0858903  61.3876993  72.4604913  67.6448903
  62.3086993  73.3304913  68.1698903  62.0546993  72.6014913  68.0328903
  57.3776993  61.7454913  67.2558903  57.0556993  61.1694913  66.6858903
  57.0186993  62.5004913  67.0098903  57.2776993  61.7714913  67.1358903
  67.4186993  66.9034913  63.2978903  67.3866993  66.0414913  63.1628903
  66.7256993  67.2054913  62.8638903  67.3116993  66.8204913  63.2138903
  55.8126993  72.1014913  67.5038903  55.8536993  72.2274913  68.3668903
  56.4636993  71.5414913  67.3478903  55.9146993  72.0374913  67.6088903
  65.5236993  70.1634913  62.0948903  66.0506993  70.0804913  61.4038903
  65.1326993  69.3854913  62.1488903  65.5436993  70.0364913  62.0008903
  53.4056993  70.4844913  68.8638903  54.0006993  70.9154913  69.3358903
  53.0416993  71.1084913  68.3748903  53.4396993  70.6404913  68.8608903
  51.3326993  68.4734913  65.7928903  50.7586993  68.8894913  66.3018903
  52.0656993  68.9384913  65.8878903  51.3566993  68.6034913  65.8818903
  66.6406993  64.6194913  68.5088903  67.2746993  64.4494913  69.0828903
  67.0576993  65.0224913  67.8568903  66.7956993  64.6544913  68.4978903
  67.2656993  59.1834913  69.2468903  67.0696993  59.8274913  69.8018903
  66.5436993  58.6934913  69.2388903  67.1306993  59.2064913  69.3278903
  67.1646993  60.1244913  62.2178903  66.3316993  60.3744913  62.1458903
  67.1086993  59.2844913  62.4468903  67.0336993  60.0374913  62.2408903
  56.4246993  57.1124913  67.4118903  56.6586993  56.5364913  66.7988903
  55.5826993  56.9314913  67.5528903  56.3346993  57.0004913  67.3418903
  64.0516993  64.7304913  69.8638903  64.9226993  64.6944913  69.8278903
  63.8326993  65.1504913  69.1318903  64.1486993  64.7864913  69.7508903
  53.8056993  70.5554913  61.0448903  53.7266993  69.7454913  60.7288903
  53.3616993  71.0424913  60.4728903  53.7286993  70.5074913  60.9138903
  51.3776993  72.7994913  64.6258903  51.8706993  72.7434913  65.3438903
  51.5656993  72.0664913  64.1908903  51.4786993  72.6824913  64.6678903
  64.6676993  54.2484913  47.6476493  64.5096993  55.0174913  47.2656493
  63.8956993  54.0284913  47.9916493  64.5296993  54.3294913  47.6426493
  62.1296993  58.8894913  32.1616493  61.6796993  59.5704913  32.4686493
  62.2436993  58.3854913  32.8646493  62.0806993  58.9154913  32.3106493
  67.5236993  58.8624913  38.4566493  67.1776993  59.5404913  38.8826493
  66.8876993  58.2644913  38.4726493  67.3786993  58.8744913  38.5216493
  62.8356993  71.6324913  44.5606493  63.5796993  72.0884913  44.5506493
  62.7146993  71.4184913  43.7236493  62.9276993  71.6684913  44.4356493
  68.4166993  57.3204913  33.0536493  67.7546993  56.7524913  33.0766493
  68.2236993  57.8324913  32.3736493  68.2906993  57.3124913  32.9566493
  68.7396993  61.6984913  45.6096493  68.9546993  60.8984913  45.3336493
  67.8896993  61.7584913  45.4206493  68.6456993  61.5894913  45.5406493
  66.4186993  56.8784913  35.3326493  67.1646993  56.4714913  35.5316493
  66.6816993  57.5934913  34.9076493  66.5676993  56.9244913  35.2996493
  66.4026993  70.8134913  46.3596493  65.7316993  71.3274913  46.5776493
  66.4656993  70.9134913  45.4956493  66.3126993  70.9044913  46.2646493
  65.4476993  64.8914913  46.5406493  65.5026993  65.0164913  45.6786493
  66.2006993  65.2114913  46.8426493  65.5666993  64.9564913  46.4576493
  66.4796993  55.1894913  49.5276493  65.8426993  54.7894913  49.0856493
  66.5056993  54.7584913  50.2856493  66.3896993  55.0674913  49.5736493
  65.7196993  64.3684913  43.7866493  65.7126993  63.5924913  44.1846493
  64.8786993  64.6024913  43.7796493  65.5946993  64.2884913  43.8446493
  68.1066993  70.0724913  41.7526493  68.3966993  70.3294913  40.9716493
  68.8016993  70.1684913  42.2716493  68.2526993  70.1244913  41.7136493
  68.1076993  61.8684913  48.3686493  67.2526993  61.7464913  48.4946493
  68.2606993  61.4734913  47.6056493  68.0036993  61.7914913  48.2746493
  67.7896993  55.3034913  46.0006493  67.7376993  55.2594913  46.8706493
  68.4766993  54.8004913  45.8106493  67.8836993  55.2234913  46.1006493
  62.6066993  68.2644913  44.8336493  62.8126993  68.5654913  45.6256493
  62.5456993  68.9864913  44.3486493  62.6276993  68.4154913  44.8786493
  67.4186993  66.9034913  44.2916493  67.3866993  66.0414913  44.1566493
  66.7256993  67.2054913  43.8576493  67.3116993  66.8204913  44.2076493
  65.5236993  70.1634913  43.0886493  66.0506993  70.0804913  42.3976493
  65.1326993  69.3854913  43.1426493  65.5436993  70.0364913  42.9946493
  67.1646993  60.1244913  43.2116493  66.3316993  60.3744913  43.1396493
  67.1086993  59.2844913  43.4406493  67.0336993  60.0374913  43.2346493
  60.8156993  55.3154913  18.7604083  60.5706993  55.8034913  18.0804083
  61.6786993  55.2424913  18.6604083  60.9066993  55.3764913  18.6454083
  66.7686993  69.6724913  16.4024083  67.4696993  69.1534913  16.3984083
  66.1816993  69.2274913  15.9334083  66.7856993  69.5294913  16.3324083
  53.3756993  65.4264913  14.0664083  52.9836993  65.0554913  13.3804083
  53.2956993  64.8284913  14.6954083  53.3056993  65.2834913  14.0574083
  57.2846993  56.4024913  17.9154083  57.2146993  57.0794913  17.3694083
  58.0256993  56.0144913  17.6664083  57.3836993  56.4454913  17.7974083
  51.8936993  70.1584913  14.0434083  52.3606993  70.2424913  13.3114083
  52.3486993  69.5804913  14.5124083  52.0296993  70.0854913  14.0044083
  56.3876993  59.2374913  24.6914083  57.0656993  59.2554913  24.1424083
  56.3426993  58.4014913  24.9364083  56.4806993  59.1164913  24.6464083
  64.6676993  54.2484913  28.6414083  64.5096993  55.0174913  28.2594083
  63.8956993  54.0284913  28.9854083  64.5296993  54.3294913  28.6364083
  62.1296993  58.8894913  13.1554083  61.6796993  59.5704913  13.4624083
  62.2436993  58.3854913  13.8584083  62.0806993  58.9154913  13.3044083
  62.2286993  71.2304913  15.2594083  62.9556993  71.7024913  15.3614083
  62.4576993  70.4364913  15.5394083  62.3706993  71.1834913  15.3164083
  60.3966993  71.6224913  17.2494083  60.6106993  72.1494913  17.9114083
  61.1636993  71.4484913  16.8704083  60.5416993  71.6744913  17.2914083
  67.5236993  58.8624913  19.4504083  67.1776993  59.5404913  19.8764083
  66.8876993  58.2644913  19.4664083  67.3786993  58.8744913  19.5154083
  62.8356993  71.6324913  25.5544083  63.5796993  72.0884913  25.5444083
  62.7146993  71.4184913  24.7174083  62.9276993  71.6684913  25.4294083
  60.3686993  60.8434913  14.1924083  60.6496993  61.6314913  14.4414083
  59.5926993  61.0084913  13.8294083  60.2956993  60.9844913  14.1754083
  64.4096993  72.8174913  15.6594083  65.0746993  72.6694913  15.1144083
  64.7696993  72.7344913  16.4494083  64.5616993  72.7834913  15.6954083
  67.1986993  57.1854913  24.8194083  67.9556993  57.2574913  24.3914083
  67.2616993  56.4124913  25.2184083  67.3196993  57.0824913  24.8144083
  59.2276993  69.0144913  14.0084083  59.0466993  69.5594913  14.6654083
  59.9936993  69.3044913  13.7074083  59.3136993  69.1384913  14.0614083
  62.7346993  56.9104913  15.0624083  63.2746993  56.2284913  15.1384083
  62.7966993  57.3084913  15.8364083  62.8236993  56.8684913  15.1884083
  59.9926993  59.2864913  16.3764083  59.4846993  58.6244913  16.1224083
  60.0446993  59.7904913  15.6664083  59.9256993  59.2634913  16.2344083
  59.9926993  56.2274913  16.2674083  59.5376993  55.8254913  15.6414083
  60.7656993  56.3824913  15.8924083  60.0396993  56.1914913  16.1194083
  66.8186993  72.5844913  19.6574083  66.3636993  73.3014913  19.8584083
  66.2046993  72.0134913  19.4154083  66.6606993  72.6064913  19.6514083
  58.5906993  58.5944913  20.7894083  58.6646993  59.1624913  20.1314083
  58.7116993  59.0864913  21.4994083  58.6186993  58.7514913  20.7974083
  63.8156993  68.4294913  19.2014083  64.5166993  67.9474913  19.3904083
  63.1556993  67.8604913  19.2464083  63.8216993  68.2744913  19.2354083
  62.3826993  58.7644913  26.6774083  62.2876993  59.0834913  27.4834083
  61.7896993  58.1254913  26.6394083  62.2806993  58.7164913  26.7914083
  63.0816993  65.4834913  24.8824083  62.5676993  65.0714913  25.4534083
  62.9556993  66.3274913  25.0634083  62.9876993  65.5474913  24.9934083
  63.6386993  54.7084913  19.5134083  63.6876993  54.3904913  20.3244083
  63.9616993  54.0644913  19.0204083  63.6936993  54.5664913  19.5604083
  66.1026993  58.9444913  27.8214083  66.8746993  58.7194913  28.1584083
  65.6276993  59.1614913  28.5214083  66.1466993  58.9434913  27.9744083
  66.3346993  65.9224913  15.0094083  66.4536993  65.6354913  15.8244083
  67.1416993  65.9434913  14.6794083  66.4706993  65.8834913  15.0814083
  52.2376993  72.3794913  21.5774083  51.5646993  71.8814913  21.3324083
  52.6406993  72.5644913  20.8264083  52.1976993  72.3334913  21.4304083
  64.2296993  62.4594913  14.5944083  64.0096993  63.1904913  14.1724083
  63.7816993  62.5104913  15.3414083  64.1306993  62.5744913  14.6424083
  68.4166993  57.3204913  14.0474083  67.7546993  56.7524913  14.0704083
  68.2236993  57.8324913  13.3674083  68.2906993  57.3124913  13.9504083
  68.7396993  61.6984913  26.6034083  68.9546993  60.8984913  26.3274083
  67.8896993  61.7584913  26.4144083  68.6456993  61.5894913  26.5344083
  66.4186993  56.8784913  16.3264083  67.1646993  56.4714913  16.5254083
  66.6816993  57.5934913  15.9014083  66.5676993  56.9244913  16.2934083
  60.3616993  69.3644913  20.9024083  59.8386993  69.9984913  20.6094083
  60.6716993  69.0004913  20.1734083  60.3296993  69.4044913  20.7514083
  62.8726993  59.1664913  21.3994083  63.2166993  59.3184913  22.1864083
  62.4196993  58.4284913  21.5124083  62.8566993  59.0794913  21.5324083
  50.0626993  66.6014913  14.2014083  50.8186993  66.1694913  14.2594083
  50.0776993  67.1334913  14.8924083  50.1766993  66.6164913  14.3124083
  64.1936993  60.4984913  23.9534083  63.5316993  60.8264913  24.4164083
  64.3806993  61.1324913  23.3844083  64.1236993  60.6404913  23.9374083
  58.3986993  71.5624913  24.9494083  58.1216993  70.9214913  24.4264083
  58.1906993  72.2884913  24.5114083  58.3276993  71.5754913  24.8074083
  60.8386993  56.4044913  27.3824083  60.9876993  55.5794913  27.1394083
  61.2176993  56.4594913  28.1664083  60.9166993  56.2904913  27.4624083
  62.3866993  58.4674913  17.4644083  62.8766993  59.1844913  17.3874083
  61.5966993  58.7284913  17.2014083  62.3426993  58.6114913  17.4144083
  61.1576993  63.1064913  15.4634083  61.1496993  63.8284913  14.9734083
  60.5186993  63.2414913  16.0404083  61.0626993  63.2334913  15.4764083
  66.1296993  66.9764913  19.4444083  66.4856993  66.6264913  20.1594083
  66.1216993  66.3154913  18.8744083  66.1816993  66.8264913  19.4654083
  62.1746993  70.0424913  23.2884083  61.5716993  69.7464913  22.7314083
  62.7196993  70.4944913  22.7794083  62.1656993  70.0654913  23.1304083
  56.0796993  71.7054913  17.1364083  55.9326993  70.9294913  17.5074083
  56.7686993  71.5584913  16.6214083  56.1596993  71.5684913  17.1154083
  55.7506993  55.4484913  15.1244083  55.8476993  55.3414913  15.9854083
  55.0426993  55.9544913  15.0594083  55.6606993  55.5074913  15.2424083
  58.3716993  71.2214913  15.5384083  58.9936993  71.3844913  16.1284083
  58.4076993  71.9124913  15.0064083  58.4686993  71.3474913  15.5474083
  66.4796993  55.1894913  30.5214083  65.8426993  54.7894913  30.0794083
  66.5056993  54.7584913  31.2794083  66.3896993  55.0674913  30.5674083
  64.7886993  67.4264913  23.6614083  64.3096993  67.7244913  22.9954083
  64.4326993  66.6504913  23.8394083  64.6656993  67.3554913  23.5894083
  54.0586993  57.6144913  14.3044083  53.5476993  57.6674913  13.5984083
  54.8426993  57.8544913  14.0084083  54.0986993  57.6574913  14.1564083
  55.5376993  71.8744913  13.1094083  55.9766993  71.1774913  13.3974083
  55.7446993  72.4984913  13.6824083  55.6336993  71.8634913  13.2364083
  68.4806993  71.5924913  15.6014083  69.1746993  71.1254913  15.3534083
  67.9416993  70.9944913  15.9384083  68.5036993  71.4344913  15.6144083
  65.7196993  64.3684913  24.7804083  65.7126993  63.5924913  25.1784083
  64.8786993  64.6024913  24.7734083  65.5946993  64.2884913  24.8384083
  55.2096993  62.7804913  13.4154083  54.5996993  62.3754913  13.8894083
  54.8236993  62.8984913  12.6424083  55.0626993  62.7374913  13.3714083
  66.9756993  64.4394913  22.2174083  66.6896993  64.8404913  22.9374083
  67.8356993  64.3774913  22.3444083  67.0606993  64.4894913  22.3424083
  64.6376993  58.3634913  30.7574083  64.1126993  58.8224913  31.2814083
  64.2766993  57.5684913  30.7514083  64.5066993  58.3134913  30.8334083
  68.1066993  70.0724913  22.7464083  68.3966993  70.3294913  21.9654083
  68.8016993  70.1684913  23.2654083  68.2526993  70.1244913  22.7074083
  64.7116993  68.6754913  14.7284083  65.0456993  67.8694913  14.7634083
  63.9566993  68.6034913  15.1584083  64.6496993  68.5454913  14.7974083
  65.1936993  60.5094913  20.3874083  64.4486993  60.1864913  20.7054083
  65.1956993  61.3354913  20.6674083  65.0836993  60.5834913  20.4754083
  62.0856993  66.5504913  14.1314083  62.7696993  66.0364913  13.9624083
  61.6686993  66.5964913  13.3664083  62.1246993  66.4814913  13.9934083
  64.1056993  56.8394913  27.8484083  64.8496993  57.2914913  27.7854083
  63.5396993  57.3094913  27.3794083  64.1326993  56.9764913  27.7704083
  65.3906993  54.8194913  25.5184083  65.1106993  55.6444913  25.4744083
  66.1066993  54.8724913  26.0144083  65.4556993  54.9494913  25.5854083
  66.8116993  61.0744913  14.3754083  67.1896993  61.7514913  13.9754083
  65.9696993  61.2984913  14.4064083  66.7426993  61.2074913  14.3204083
  58.3246993  64.5204913  13.4584083  57.5196993  64.3434913  13.1734083
  58.2916993  65.3714913  13.6504083  58.2006993  64.6194913  13.4454083
  62.2706993  59.6894913  29.2004083  61.6226993  60.1594913  29.5484083
  62.8356993  59.6004913  29.8594083  62.2586993  59.7454913  29.3494083
  61.9586993  61.2264913  25.4984083  62.2606993  61.6464913  26.2014083
  61.9946993  60.3864913  25.7304083  62.0086993  61.1644913  25.6364083
  64.5066993  60.6734913  17.7504083  64.7136993  60.4724913  18.5744083
  65.2626993  60.9414913  17.4084083  64.6486993  60.6834913  17.8214083
  65.5286993  56.7564913  19.2244083  64.8146993  56.2854913  19.3954083
  65.3666993  57.0974913  18.4384083  65.3996993  56.7374913  19.1334083
  65.9716993  64.7004913  17.6044083  66.4476993  63.9714913  17.5564083
  65.1506993  64.4144913  17.5284083  65.9206993  64.5504913  17.5854083
  55.2726993  72.8194913  23.7604083  55.2836993  72.8784913  24.6304083
  54.8476993  72.0724913  23.6104083  55.2116993  72.7174913  23.8664083
  68.1076993  61.8684913  29.3624083  67.2526993  61.7464913  29.4884083
  68.2606993  61.4734913  28.5994083  68.0036993  61.7914913  29.2684083
  62.6206993  62.5334913  27.9384083  62.3656993  61.8144913  28.3604083
  63.4416993  62.6494913  28.2084083  62.7046993  62.4444913  28.0404083
  63.6386993  72.0974913  22.0544083  63.1876993  72.7404913  22.4334083
  64.3466993  72.0184913  22.5594083  63.6766993  72.1804913  22.1854083
  66.7416993  61.8134913  17.0464083  66.8446993  61.7554913  16.1824083
  67.4826993  61.4814913  17.3644083  66.8666993  61.7564913  16.9654083
  60.6616993  68.7784913  18.1534083  60.4566993  69.6114913  17.9944083
  59.8866993  68.3964913  18.2754083  60.5166993  68.8454913  18.1484083
  65.8436993  61.9594913  26.4024083  65.8416993  61.0964913  26.5264083
  65.9106993  62.2834913  27.2094083  65.8536993  61.8794913  26.5394083
  52.0356993  60.3354913  13.4484083  51.3636993  60.3494913  14.0044083
  52.1306993  59.4874913  13.2644083  51.9506993  60.2124913  13.5034083
  61.7226993  56.7594913  30.1844083  61.8146993  57.4714913  30.6784083
  61.0856993  56.3144913  30.5814083  61.6416993  56.7984913  30.3164083
  60.7166993  56.9494913  21.0384083  60.0166993  57.4674913  20.9824083
  60.7546993  56.5694913  20.2544083  60.6186993  56.9704913  20.9144083
  56.0236993  69.0404913  14.5624083  56.4646993  69.1204913  15.3104083
  55.2186993  68.8244913  14.8204083  55.9696993  69.0204913  14.7114083
  64.3146993  57.4654913  23.8384083  65.1696993  57.5644913  23.9834083
  63.9456993  58.0184913  24.4034083  64.3866993  57.5624913  23.9434083
  64.6186993  62.7454913  22.3294083  65.2846993  63.2864913  22.4894083
  64.2736993  63.0564913  21.5904083  64.6656993  62.8714913  22.2444083
  64.9316993  70.8114913  18.1364083  64.7576993  70.1574913  18.6864083
  65.6446993  70.5404913  17.7134083  65.0116993  70.6744913  18.1554083
  53.3526993  68.1104913  15.1634083  53.1086993  67.8034913  15.9434083
  53.3196993  67.4074913  14.6474083  53.3116993  67.9614913  15.2024083
  56.1716993  66.3554913  13.9064083  55.3536993  66.0874913  14.0464083
  56.1436993  67.2074913  14.0914083  56.0466993  66.4424913  13.9544083
  55.7716993  56.6684913  25.6654083  54.9076993  56.7524913  25.7454083
  55.9916993  56.1544913  26.3344083  55.6766993  56.6054913  25.7764083
  67.7896993  55.3034913  26.9944083  67.7376993  55.2594913  27.8644083
  68.4766993  54.8004913  26.8044083  67.8836993  55.2234913  27.0944083
  59.8746993  57.4164913  24.0394083  59.1376993  56.9624913  24.1524083
  60.4456993  57.0144913  24.5624083  59.8496993  57.2894913  24.1334083
  58.1736993  54.9974913  13.8704083  58.2516993  55.2444913  13.0374083
  57.4306993  55.3744913  14.1284083  58.0756993  55.0894913  13.7854083
  67.4186993  66.9034913  25.2854083  67.3866993  66.0414913  25.1504083
  66.7256993  67.2054913  24.8514083  67.3116993  66.8204913  25.2014083
  65.5236993  70.1634913  24.0824083  66.0506993  70.0804913  23.3914083
  65.1326993  69.3854913  24.1364083  65.5436993  70.0364913  23.9884083
  62.0376993  55.6074913  23.2904083  62.7076993  56.1514913  23.4174083
  61.5346993  56.0314913  22.7174083  62.0626993  55.7504913  23.2244083
  53.1186993  71.7404913  16.5554083  52.9736993  71.8964913  15.7094083
  53.9846993  71.8194913  16.6334083  53.2256993  71.7754913  16.4424083
  57.2856993  64.1374913  16.2834083  57.3856993  64.2764913  15.4284083
  58.1036993  64.0774913  16.5794083  57.4206993  64.1484913  16.2004083
  66.4456993  72.2014913  13.7634083  67.0826993  72.0674913  14.3444083
  66.1046993  71.4074913  13.6464083  66.4896993  72.0644913  13.8314083
  62.5206993  68.4664913  16.0854083  62.2696993  68.3384913  16.9114083
  62.2036993  67.7714913  15.6644083  62.4366993  68.3454913  16.1454083
  67.2656993  59.1834913  31.2344083  67.0696993  59.8274913  31.7894083
  66.5436993  58.6934913  31.2264083  67.1306993  59.2064913  31.3154083
  67.1646993  60.1244913  24.2054083  66.3316993  60.3744913  24.1334083
  67.1086993  59.2844913  24.4344083  67.0336993  60.0374913  24.2284083
  59.4066993  66.6744913  15.5154083  60.1236993  66.3274913  15.1594083
  59.3726993  67.4744913  15.1674083  59.5076993  66.7414913  15.4114083
  60.6246993  62.2314913   4.4251673  60.1006993  62.8274913   4.7881673
  61.0216993  61.8634913   5.1091673  60.6056993  62.2654913   4.5801673
  50.4336993  69.1064913   6.1361673  50.5626993  68.8264913   6.9521673
  49.8236993  68.5654913   5.8271673  50.3626993  68.9854913   6.2111673
  57.0076993  66.6314913  11.2031673  56.7716993  66.6284913  12.0431673
  56.2596993  66.4834913  10.7791673  56.8616993  66.6084913  11.2641673
  56.3876993  59.2374913   5.6851673  57.0656993  59.2554913   5.1361673
  56.3426993  58.4014913   5.9301673  56.4806993  59.1164913   5.6401673
  56.9896993  69.8234913   8.4661673  57.1276993  70.5834913   8.0591673
  57.7806993  69.4584913   8.4931673  57.1266993  69.8824913   8.4101673
  58.0846993  67.7084913   2.9711673  58.4326993  66.9094913   3.0011673
  58.7496993  68.2124913   2.7161673  58.2346993  67.6644913   2.9381673
  60.1096993  61.2884913  10.5211673  59.2616993  61.1894913  10.3431673
  60.1386993  62.0334913  10.9751673  59.9886993  61.3844913  10.5621673
  64.6676993  54.2484913   9.6351673  64.5096993  55.0174913   9.2531673
  63.8956993  54.0284913   9.9791673  64.5296993  54.3294913   9.6301673
  50.3356993  61.3884913   3.3511673  50.0796993  62.2194913   3.2761673
  49.6716993  61.0054913   3.7681673  50.1996993  61.4544913   3.4021673
  53.3646993  56.2054913   3.8421673  52.8436993  55.5774913   3.5341673
  53.9556993  55.7684913   4.3131673  53.3756993  56.0474913   3.8661673
  56.6706993  58.3384913  13.1401673  56.7876993  57.8844913  12.4041673
  56.9586993  59.1364913  12.9371673  56.7306993  58.3894913  13.0011673
  62.8356993  71.6324913   6.5481673  63.5796993  72.0884913   6.5381673
  62.7146993  71.4184913   5.7111673  62.9276993  71.6684913   6.4231673
  52.4036993  57.9354913  12.1241673  51.6256993  57.5454913  12.0521673
  52.8946993  57.5234913  11.5331673  52.3606993  57.8164913  12.0261673
  52.6086993  68.2554913   2.6821673  53.0316993  67.8994913   2.0081673
  52.9326993  67.8334913   3.3741673  52.7186993  68.1404913   2.6851673
  55.8396993  71.1074913   1.9781673  56.6836993  71.2114913   1.7831673
  55.5426993  71.9254913   2.0461673  55.9206993  71.2434913   1.9591673
  59.0526993  55.5784913  11.2921673  59.2306993  54.7694913  11.0171673
  58.9096993  56.0194913  10.5531673  59.0576993  55.5244913  11.1421673
  54.8376993  72.3264913   7.7181673  55.1296993  72.2594913   8.5381673
  54.2116993  71.7214913   7.6731673  54.7886993  72.2274913   7.8331673
  67.1986993  57.1854913   5.8131673  67.9556993  57.2574913   5.3851673
  67.2616993  56.4124913   6.2121673  67.3196993  57.0824913   5.8081673
  49.7516993  58.4834913   9.7101673  49.7476993  59.0704913  10.3561673
  50.3456993  58.7954913   9.1531673  49.8386993  58.6164913   9.7231673
  62.0896993  68.8174913  10.2521673  62.0556993  69.1994913  11.0361673
  62.9436993  68.7754913  10.0811673  62.2106993  68.8674913  10.3431673
  52.8306993  70.4884913   6.8401673  52.1326993  69.9804913   6.9661673
  53.0906993  70.2834913   6.0321673  52.7656993  70.3834913   6.7391673
  60.5416993  71.9814913   7.7501673  61.3096993  71.9014913   7.3441673
  59.9586993  71.8604913   7.1121673  60.5686993  71.9514913   7.5961673
  54.1916993  69.3394913   9.4071673  55.0326993  69.4024913   9.1851673
  54.1546993  69.7364913  10.1831673  54.3106993  69.4074913   9.4891673
  56.1546993  64.8504913   4.1561673  56.3266993  64.6404913   4.9851673
  55.4996993  64.3164913   3.9401673  56.0836993  64.7404913   4.2471673
  62.3826993  58.7644913   7.6711673  62.2876993  59.0834913   8.4771673
  61.7896993  58.1254913   7.6331673  62.2806993  58.7164913   7.7851673
  56.9046993  64.7884913   6.7461673  56.9576993  65.6354913   6.9481673
  56.6196993  64.4184913   7.4831673  56.8706993  64.8584913   6.8841673
  63.0816993  65.4834913   5.8761673  62.5676993  65.0714913   6.4471673
  62.9556993  66.3274913   6.0571673  62.9876993  65.5474913   5.9871673
  49.7256993  69.1594913  12.9571673  50.4816993  69.5084913  13.2151673
  49.9026993  68.3064913  12.9001673  49.8636993  69.0844913  12.9871673
  66.1026993  58.9444913   8.8151673  66.8746993  58.7194913   9.1521673
  65.6276993  59.1614913   9.5151673  66.1466993  58.9434913   8.9681673
  52.2376993  72.3794913   2.5711673  51.5646993  71.8814913   2.3261673
  52.6406993  72.5644913   1.8201673  52.1976993  72.3334913   2.4241673
  51.7876993  59.3294913   4.8671673  52.6306993  59.5494913   4.8241673
  51.3986993  59.9024913   4.3361673  51.8546993  59.4464913   4.7821673
  68.5686993  70.4314913  10.2571673  67.8866993  70.7414913   9.8101673
  68.1996993  69.9734913  10.9021673  68.4126993  70.4094913  10.2861673
  49.9946993  67.3044913   2.8891673  49.3276993  67.7924913   3.1651673
  50.6746993  67.8494913   2.9181673  49.9966993  67.4564913   2.9341673
  57.6416993  61.0144913  12.9851673  57.1576993  61.5914913  13.4271673
  57.6136993  61.3094913  12.1641673  57.5656993  61.1434913  12.9291673
  68.7396993  61.6984913   7.5971673  68.9546993  60.8984913   7.3211673
  67.8896993  61.7584913   7.4081673  68.6456993  61.5894913   7.5281673
  54.4366993  67.1524913   4.6561673  54.9036993  67.4414913   5.3341673
  55.0086993  66.6744913   4.2021673  54.5906993  67.1244913   4.6891673
  62.8726993  59.1664913   2.3931673  63.2166993  59.3184913   3.1801673
  62.4196993  58.4284913   2.5061673  62.8566993  59.0794913   2.5261673
  51.0026993  64.8224913   3.2001673  51.4336993  64.6934913   2.4531673
  50.7976993  65.6704913   3.1741673  51.0356993  64.9284913   3.0861673
  66.4026993  70.8134913   8.3471673  65.7316993  71.3274913   8.5651673
  66.4656993  70.9134913   7.4831673  66.3126993  70.9044913   8.2521673
  53.2166993  61.8214913  11.3441673  52.6806993  61.3154913  11.8121673
  53.2366993  61.4314913  10.5641673  53.1396993  61.6884913  11.2981673
  53.8686993  63.0484913   3.0831673  53.0876993  62.9894913   2.7001673
  53.9406993  62.2964913   3.5201673  53.7636993  62.9294913   3.0911673
  54.2986993  62.7854913   6.5511673  54.3236993  62.1104913   6.0001673
  53.6526993  63.2814913   6.2391673  54.2076993  62.7584913   6.4241673
  64.1936993  60.4984913   4.9471673  63.5316993  60.8264913   5.4101673
  64.3806993  61.1324913   4.3781673  64.1236993  60.6404913   4.9311673
  58.3986993  71.5624913   5.9431673  58.1216993  70.9214913   5.4201673
  58.1906993  72.2884913   5.5051673  58.3276993  71.5754913   5.8011673
  60.8386993  56.4044913   8.3761673  60.9876993  55.5794913   8.1331673
  61.2176993  56.4594913   9.1601673  60.9166993  56.2904913   8.4561673
  52.0976993  64.1404913  12.1101673  52.0606993  64.6414913  11.3961673
  52.4286993  63.3884913  11.8151673  52.1406993  64.1024913  11.9611673
  63.7006993  66.3454913  10.3681673  64.1846993  67.0634913  10.4661673
  64.0946993  65.9184913   9.7171673  63.8306993  66.3884913  10.2861673
  57.9966993  69.1904913  11.5451673  58.3506993  69.0124913  12.3221673
  57.5606993  68.4614913  11.3461673  57.9846993  69.0564913  11.6311673
  58.9686993  59.9374913   4.1831673  59.4486993  60.6364913   4.3911673
  59.3416993  59.2904913   4.6341673  59.0946993  59.9454913   4.2801673
  62.1746993  70.0424913   4.2821673  61.5716993  69.7464913   3.7251673
  62.7196993  70.4944913   3.7731673  62.1656993  70.0654913   4.1241673
  62.1876993  66.8934913   3.6821673  61.3906993  67.1174913   3.9561673
  62.4456993  66.2994913   4.2671673  62.1076993  66.8384913   3.8091673
  65.4476993  64.8914913   8.5281673  65.5026993  65.0164913   7.6661673
  66.2006993  65.2114913   8.8301673  65.5666993  64.9564913   8.4451673
  61.6386993  70.2404913  12.8051673  61.8026993  70.5234913  13.6141673
  61.9016993  70.9014913  12.3001673  61.7016993  70.3804913  12.8501673
  66.4796993  55.1894913  11.5151673  65.8426993  54.7894913  11.0731673
  66.5056993  54.7584913  12.2731673  66.3896993  55.0674913  11.5611673
  61.1786993  64.6974913   8.1281673  61.0236993  65.3074913   8.7321673
  61.7126993  64.1394913   8.5341673  61.2346993  64.7054913   8.2771673
  64.7886993  67.4264913   4.6551673  64.3096993  67.7244913   3.9891673
  64.4326993  66.6504913   4.8331673  64.6656993  67.3554913   4.5831673
  58.7856993  65.1444913   3.2171673  57.9386993  64.9504913   3.2981673
  59.1096993  64.9794913   4.0101673  58.7076993  65.0914913   3.3461673
  52.6336993  64.8374913   5.5331673  53.3556993  65.3254913   5.4961673
  52.3636993  64.8074913   4.7041673  52.7006993  64.9054913   5.4051673
  55.8636993  60.0084913   2.2681673  56.7096993  59.8184913   2.3661673
  55.4936993  59.2314913   2.1301673  55.9336993  59.8654913   2.2621673
  65.7196993  64.3684913   5.7741673  65.7126993  63.5924913   6.1721673
  64.8786993  64.6024913   5.7671673  65.5946993  64.2884913   5.8321673
  52.0286993  65.8894913   9.8111673  51.6076993  65.3714913   9.2501673
  51.6766993  66.6754913   9.6681673  51.9146993  65.9294913   9.7071673
  66.9756993  64.4394913   3.2111673  66.6896993  64.8404913   3.9311673
  67.8356993  64.3774913   3.3381673  67.0606993  64.4894913   3.3361673
  64.6376993  58.3634913  11.7511673  64.1126993  58.8224913  12.2751673
  64.2766993  57.5684913  11.7451673  64.5066993  58.3134913  11.8271673
  50.1446993  57.2114913   3.6551673  50.1886993  57.5554913   2.8541673
  50.8996993  57.4484913   4.0221673  50.2626993  57.2974913   3.5911673
  68.1066993  70.0724913   3.7401673  68.3966993  70.3294913   2.9591673
  68.8016993  70.1684913   4.2591673  68.2526993  70.1244913   3.7011673
  63.1296993  61.9324913  11.8271673  63.2026993  62.0364913  12.6901673
  62.4956993  62.4904913  11.6061673  63.0466993  62.0304913  11.9221673
  65.3976993  62.2514913  10.1921673  65.7166993  63.0374913  10.3951673
  65.0276993  61.9814913  10.9351673  65.3906993  62.3274913  10.3321673
  68.0956993  62.7934913  12.9271673  68.0436993  62.4524913  12.1261673
  68.8326993  63.2604913  12.9051673  68.1966993  62.8124913  12.8051673
  67.6336993  66.4694913   9.1331673  68.2616993  65.9204913   8.8771673
  67.5726993  67.0344913   8.4711673  67.7176993  66.4724913   8.9971673
  56.7676993  67.7004913   6.4291673  56.4696993  68.2924913   6.9961673
  56.8226993  68.1424913   5.6801673  56.7316993  67.8534913   6.4021673
  54.7466993  66.6504913   9.8271673  53.9406993  66.3604913   9.9941673
  54.6576993  67.5184913   9.8331673  54.6146993  66.7354913   9.8521673
  64.1056993  56.8394913   8.8421673  64.8496993  57.2914913   8.7791673
  63.5396993  57.3094913   8.3731673  64.1326993  56.9764913   8.7641673
  59.2836993  64.1234913   5.9201673  59.7596993  64.4974913   6.5481673
  58.4606993  64.2574913   6.1791673  59.2326993  64.1984913   6.0511673
  55.9936993  59.7264913   8.6611673  56.1546993  58.9824913   9.0881673
  55.9486993  59.4774913   7.8261673  56.0106993  59.5794913   8.6011673
  65.3906993  54.8194913   6.5121673  65.1106993  55.6444913   6.4681673
  66.1066993  54.8724913   7.0081673  65.4556993  54.9494913   6.5791673
  57.7456993  55.5344913   8.5411673  58.4506993  55.8544913   8.1391673
  57.9866993  54.7274913   8.7681673  57.8846993  55.4624913   8.5151673
  56.7306993  69.7444913   4.5371673  56.1066993  70.3264913   4.3551673
  56.9786993  69.4584913   3.7511673  56.6746993  69.7884913   4.3941673
  61.0396993  66.3784913  11.5261673  61.7966993  66.6644913  11.2001673
  60.4926993  66.4304913  10.8481673  61.0706993  66.4284913  11.3771673
  64.9486993  68.9284913  10.0301673  65.2946993  69.1984913  10.7841673
  65.2426993  69.5104913   9.4501673  65.0436993  69.0544913  10.0561673
  54.2546993  60.5874913   4.6021673  54.6946993  60.4844913   3.8561673
  54.7996993  60.2744913   5.2071673  54.3996993  60.5264913   4.5811673
  62.2706993  59.6894913  10.1941673  61.6226993  60.1594913  10.5421673
  62.8356993  59.6004913  10.8531673  62.2586993  59.7454913  10.3431673
  61.9586993  61.2264913   6.4921673  62.2606993  61.6464913   7.1951673
  61.9946993  60.3864913   6.7241673  62.0086993  61.1644913   6.6301673
  59.3836993  71.3934913  10.4171673  59.8616993  70.7934913  10.0011673
  59.0326993  70.9504913  11.0821673  59.4026993  71.2394913  10.4541673
  57.8016993  55.5724913   4.6491673  56.9756993  55.4234913   4.8861673
  57.7616993  55.6074913   3.7781673  57.6736993  55.5554913   4.5551673
  59.4426993  66.6124913   9.4371673  58.6476993  66.5484913   9.7881673
  59.5136993  67.4594913   9.2421673  59.3356993  66.7274913   9.4601673
  50.3666993  55.9704913  10.6841673  50.2266993  56.7654913  10.3531673
  49.5806993  55.7274913  10.9731673  50.2296993  56.0524913  10.6781673
  55.2726993  72.8194913   4.7541673  55.2836993  72.8784913   5.6241673
  54.8476993  72.0724913   4.6041673  55.2116993  72.7174913   4.8601673
  59.9316993  69.2594913   8.5451673  60.6186993  69.1454913   9.0701673
  60.0656993  70.0504913   8.2011673  60.0526993  69.3594913   8.5721673
  68.1076993  61.8684913  10.3561673  67.2526993  61.7464913  10.4821673
  68.2606993  61.4734913   9.5931673  68.0036993  61.7914913  10.2621673
  62.6206993  62.5334913   8.9321673  62.3656993  61.8144913   9.3541673
  63.4416993  62.6494913   9.2021673  62.7046993  62.4444913   9.0341673
  52.0366993  72.3174913  10.1961673  51.3826993  71.7484913  10.2941673
  51.6616993  73.0904913  10.3471673  51.8846993  72.3474913  10.2331673
  60.5546993  63.7234913  12.1191673  60.8776993  64.4094913  11.6871673
  59.8506993  64.0464913  12.5211673  60.4976993  63.8724913  12.1141673
  63.6386993  72.0974913   3.0481673  63.1876993  72.7404913   3.4271673
  64.3466993  72.0184913   3.5531673  63.6766993  72.1804913   3.1791673
  60.3396993  67.1874913   5.9781673  59.6456993  67.5894913   6.3211673
  61.0166993  67.6204913   6.3171673  60.3366993  67.3104913   6.0791673
  65.7166993  69.7804913  12.5581673  66.4926993  69.3904913  12.6411673
  65.2476993  69.4444913  13.2131673  65.7616993  69.6734913  12.6671673
  53.4076993  60.7254913   8.3251673  53.7826993  61.3444913   7.8381673
  54.0816993  60.2514913   8.6101673  53.5626993  60.7474913   8.2951673
  51.1826993  59.1734913   7.6001673  51.2596993  59.0044913   6.7471673
  51.9286993  59.5794913   7.7971673  51.3036993  59.2084913   7.5031673
  53.7366993  56.5834913  10.0111673  53.6556993  55.7394913  10.2171673
  53.4226993  56.6274913   9.1981673  53.6786993  56.4654913   9.9211673
  65.8436993  61.9594913   7.3961673  65.8416993  61.0964913   7.5201673
  65.9106993  62.2834913   8.2031673  65.8536993  61.8794913   7.5331673
  50.5796993  64.3994913   7.8241673  50.8996993  64.6184913   7.0431673
  50.4796993  63.5344913   7.7691673  50.6116993  64.3044913   7.7011673
  61.7226993  56.7594913  11.1781673  61.8146993  57.4714913  11.6721673
  61.0856993  56.3144913  11.5751673  61.6416993  56.7984913  11.3101673
  64.3146993  57.4654913   4.8321673  65.1696993  57.5644913   4.9771673
  63.9456993  58.0184913   5.3971673  64.3866993  57.5624913   4.9371673
  55.3426993  63.6914913   9.2091673  54.9466993  64.4654913   9.2841673
  54.9366993  63.3184913   8.5331673  55.2246993  63.7504913   9.1201673
  64.6186993  62.7454913   3.3231673  65.2846993  63.2864913   3.4831673
  64.2736993  63.0564913   2.5841673  64.6656993  62.8714913   3.2381673
  55.7716993  56.6684913   6.6591673  54.9076993  56.7524913   6.7391673
  55.9916993  56.1544913   7.3281673  55.6766993  56.6054913   6.7701673
  67.7896993  55.3034913   7.9881673  67.7376993  55.2594913   8.8581673
  68.4766993  54.8004913   7.7981673  67.8836993  55.2234913   8.0881673
  59.8746993  57.4164913   5.0331673  59.1376993  56.9624913   5.1461673
  60.4456993  57.0144913   5.5561673  59.8496993  57.2894913   5.1271673
  62.6066993  68.2644913   6.8211673  62.8126993  68.5654913   7.6131673
  62.5456993  68.9864913   6.3361673  62.6276993  68.4154913   6.8661673
  62.1406993  72.4784913  11.0671673  61.3876993  72.4604913  10.6261673
  62.3086993  73.3304913  11.1511673  62.0546993  72.6014913  11.0141673
  57.3776993  61.7454913  10.2371673  57.0556993  61.1694913   9.6671673
  57.0186993  62.5004913   9.9911673  57.2776993  61.7714913  10.1171673
  67.4186993  66.9034913   6.2791673  67.3866993  66.0414913   6.1441673
  66.7256993  67.2054913   5.8451673  67.3116993  66.8204913   6.1951673
  55.8126993  72.1014913  10.4851673  55.8536993  72.2274913  11.3481673
  56.4636993  71.5414913  10.3291673  55.9146993  72.0374913  10.5901673
  65.5236993  70.1634913   5.0761673  66.0506993  70.0804913   4.3851673
  65.1326993  69.3854913   5.1301673  65.5436993  70.0364913   4.9821673
  52.9916993  56.7514913   7.3071673  52.6486993  55.9844913   7.0731673
  52.2966993  57.2754913   7.3711673  52.8386993  56.7154913   7.2821673
  62.0376993  55.6074913   4.2841673  62.7076993  56.1514913   4.4111673
  61.5346993  56.0314913   3.7111673  62.0626993  55.7504913   4.2181673
  53.4056993  70.4844913  11.8451673  54.0006993  70.9154913  12.3171673
  53.0416993  71.1084913  11.3561673  53.4396993  70.6404913  11.8421673
  61.3966993  61.4154913   1.7771673  61.9476993  60.8084913   2.0771673
  60.9716993  61.6784913   2.4921673  61.4156993  61.3644913   1.9261673
  51.3326993  68.4734913   8.7741673  50.7586993  68.8894913   9.2831673
  52.0656993  68.9384913   8.8691673  51.3566993  68.6034913   8.8631673
  66.6406993  64.6194913  11.4901673  67.2746993  64.4494913  12.0641673
  67.0576993  65.0224913  10.8381673  66.7956993  64.6544913  11.4791673
  67.2656993  59.1834913  12.2281673  67.0696993  59.8274913  12.7831673
  66.5436993  58.6934913  12.2201673  67.1306993  59.2064913  12.3091673
  67.1646993  60.1244913   5.1991673  66.3316993  60.3744913   5.1271673
  67.1086993  59.2844913   5.4281673  67.0336993  60.0374913   5.2221673
  56.4246993  57.1124913  10.3931673  56.6586993  56.5364913   9.7801673
  55.5826993  56.9314913  10.5341673  56.3346993  57.0004913  10.3231673
  64.0516993  64.7304913  12.8451673  64.9226993  64.6944913  12.8091673
  63.8326993  65.1504913  12.1131673  64.1486993  64.7864913  12.7321673
  53.8056993  70.5554913   4.0261673  53.7266993  69.7454913   3.7101673
  53.3616993  71.0424913   3.4541673  53.7286993  70.5074913   3.8951673
  51.3776993  72.7994913   7.6071673  51.8706993  72.7434913   8.3251673
  51.5656993  72.0664913   7.1721673  51.4786993  72.6824913   7.6491673
  60.8156993  36.8373833  75.7791313  60.5706993  37.3253833  75.0991313
  61.6786993  36.7643833  75.6791313  60.9066993  36.8983833  75.6641313
  60.6246993  43.7533833  80.4501313  60.1006993  44.3493833  80.8131313
  61.0216993  43.3853833  81.1341313  60.6056993  43.7873833  80.6051313
  50.4936993  47.8933833  75.9061313  50.0526993  48.0113833  76.6491313
  50.2106993  47.1183833  75.6211313  50.3866993  47.7963833  75.9741313
  66.7686993  51.1943833  73.4211313  67.4696993  50.6753833  73.4171313
  66.1816993  50.7493833  72.9521313  66.7856993  51.0513833  73.3511313
  50.2366993  41.6853833  72.4131313  49.4586993  41.8473833  72.0531313
  50.2756993  40.8143833  72.4351313  50.1276993  41.5803833  72.3631313
  53.3756993  46.9483833  71.0851313  52.9836993  46.5773833  70.3991313
  53.2956993  46.3503833  71.7141313  53.3056993  46.8053833  71.0761313
  63.2956993  44.8203833  77.1261313  63.3756993  44.8243833  76.2571313
  62.7116993  44.1883833  77.2751313  63.2206993  44.7273833  77.0201313
  53.0026993  48.5893833  74.9851313  53.6106993  48.4193833  75.5881313
  52.2516993  48.4493833  75.4061313  52.9816993  48.5433833  75.1361313
  57.2846993  37.9243833  74.9341313  57.2146993  38.6013833  74.3881313
  58.0256993  37.5363833  74.6851313  57.3836993  37.9673833  74.8161313
  51.8936993  51.6803833  71.0621313  52.3606993  51.7643833  70.3301313
  52.3486993  51.1023833  71.5311313  52.0296993  51.6073833  71.0231313
  51.8796993  45.1493833  76.3631313  51.4176993  44.7573833  75.7361313
  52.5796993  44.6363833  76.4551313  51.9146993  45.0163833  76.2841313
  53.8806993  43.2493833  76.3861313  54.6976993  43.0623833  76.6291313
  53.4036993  42.6353833  76.7821313  53.9306993  43.1313833  76.4811313
  58.0846993  49.2303833  78.9961313  58.4326993  48.4313833  79.0261313
  58.7496993  49.7343833  78.7411313  58.2346993  49.1863833  78.9631313
  58.1416993  48.6793833  75.2071313  58.4726993  48.0353833  75.6931313
  58.3816993  48.4683833  74.3961313  58.2256993  48.5533833  75.1591313
  54.4776993  38.3433833  75.6521313  54.1816993  38.8443833  75.0021313
  55.3446993  38.4213833  75.5951313  54.5616993  38.4293833  75.5481313
  57.4566993  37.4853833  77.8751313  57.5296993  38.3453833  78.0041313
  57.4186993  37.4103833  77.0071313  57.4616993  37.6013833  77.7661313
  62.1296993  40.4113833  70.1741313  61.6796993  41.0923833  70.4811313
  62.2436993  39.9073833  70.8771313  62.0806993  40.4373833  70.3231313
  50.3356993  42.9103833  79.3761313  50.0796993  43.7413833  79.3011313
  49.6716993  42.5273833  79.7931313  50.1996993  42.9763833  79.4271313
  50.2456993  52.6203833  77.2761313  49.6536993  53.1783833  76.9631313
  50.6716993  52.3513833  76.5641313  50.2216993  52.6623833  77.1251313
  56.0856993  50.4643833  74.7561313  55.5066993  50.1893833  75.3481313
  56.7096993  49.8553833  74.7811313  56.0926993  50.3343833  74.8471313
  62.2286993  52.7523833  72.2781313  62.9556993  53.2243833  72.3801313
  62.4576993  51.9583833  72.5581313  62.3706993  52.7053833  72.3351313
  60.3966993  53.1443833  74.2681313  60.6106993  53.6713833  74.9301313
  61.1636993  52.9703833  73.8891313  60.5416993  53.1963833  74.3101313
  53.3646993  37.7273833  79.8671313  52.8436993  37.0993833  79.5591313
  53.9556993  37.2903833  80.3381313  53.3756993  37.5693833  79.8911313
  51.7906993  51.2903833  75.2071313  52.4466993  50.7153833  75.2221313
  52.1796993  52.0393833  74.9861313  51.9456993  51.3153833  75.1771313
  67.5236993  40.3843833  76.4691313  67.1776993  41.0623833  76.8951313
  66.8876993  39.7863833  76.4851313  67.3786993  40.3963833  76.5341313
  52.6086993  49.7773833  78.7071313  53.0316993  49.4213833  78.0331313
  52.9326993  49.3553833  79.3991313  52.7186993  49.6623833  78.7101313
  55.8396993  52.6293833  78.0031313  56.6836993  52.7333833  77.8081313
  55.5426993  53.4473833  78.0711313  55.9206993  52.7653833  77.9841313
  59.6466993  42.0263833  76.0901313  59.9336993  41.7943833  75.3001313
  60.3786993  42.1053833  76.5591313  59.7966993  42.0033833  76.0431313
  60.3686993  42.3653833  71.2111313  60.6496993  43.1533833  71.4601313
  59.5926993  42.5303833  70.8481313  60.2956993  42.5063833  71.1941313
  64.4096993  54.3393833  72.6781313  65.0746993  54.1913833  72.1331313
  64.7696993  54.2563833  73.4681313  64.5616993  54.3053833  72.7141313
  59.2276993  50.5363833  71.0271313  59.0466993  51.0813833  71.6841313
  59.9936993  50.8263833  70.7261313  59.3136993  50.6603833  71.0801313
  62.7346993  38.4323833  72.0811313  63.2746993  37.7503833  72.1571313
  62.7966993  38.8303833  72.8551313  62.8236993  38.3903833  72.2071313
  50.6886993  39.6003833  74.6501313  50.5746993  38.7363833  74.6811313
  50.2136993  39.8943833  75.3201313  50.6016993  39.5163833  74.7531313
  59.9926993  40.8083833  73.3951313  59.4846993  40.1463833  73.1411313
  60.0446993  41.3123833  72.6851313  59.9256993  40.7853833  73.2531313
  59.9926993  37.7493833  73.2861313  59.5376993  37.3473833  72.6601313
  60.7656993  37.9043833  72.9111313  60.0396993  37.7133833  73.1381313
  66.8186993  54.1063833  76.6761313  66.3636993  54.8233833  76.8771313
  66.2046993  53.5353833  76.4341313  66.6606993  54.1283833  76.6701313
  58.5906993  40.1163833  77.8081313  58.6646993  40.6843833  77.1501313
  58.7116993  40.6083833  78.5181313  58.6186993  40.2733833  77.8161313
  63.8156993  49.9513833  76.2201313  64.5166993  49.4693833  76.4091313
  63.1556993  49.3823833  76.2651313  63.8216993  49.7963833  76.2541313
  53.1986993  35.9393833  76.1561313  53.7346993  36.6273833  76.1461313
  53.2016993  35.6653833  75.3281313  53.2776993  36.0003833  76.0321313
  56.1546993  46.3723833  80.1811313  56.3266993  46.1623833  81.0101313
  55.4996993  45.8383833  79.9651313  56.0836993  46.2623833  80.2721313
  63.6386993  36.2303833  76.5321313  63.6876993  35.9123833  77.3431313
  63.9616993  35.5863833  76.0391313  63.6936993  36.0883833  76.5791313
  53.6466993  39.7493833  77.8101313  53.9186993  39.3193833  77.1021313
  53.4706993  39.1133833  78.3811313  53.6606993  39.5923833  77.7901313
  66.3346993  47.4443833  72.0281313  66.4536993  47.1573833  72.8431313
  67.1416993  47.4653833  71.6981313  66.4706993  47.4053833  72.1001313
  53.4706993  47.1763833  77.3591313  54.3216993  47.0963833  77.1861313
  53.1136993  46.4943833  76.9471313  53.5436993  47.0633833  77.2721313
  52.2376993  53.9013833  78.5961313  51.5646993  53.4033833  78.3511313
  52.6406993  54.0863833  77.8451313  52.1976993  53.8553833  78.4491313
  51.7876993  40.8513833  80.8921313  52.6306993  41.0713833  80.8491313
  51.3986993  41.4243833  80.3611313  51.8546993  40.9683833  80.8071313
  64.2296993  43.9813833  71.6131313  64.0096993  44.7123833  71.1911313
  63.7816993  44.0323833  72.3601313  64.1306993  44.0963833  71.6611313
  55.8386993  47.1833833  75.5941313  56.5516993  47.6783833  75.6841313
  56.0606993  46.6163833  74.9681313  55.9766993  47.1723833  75.5151313
  68.4166993  38.8423833  71.0661313  67.7546993  38.2743833  71.0891313
  68.2236993  39.3543833  70.3861313  68.2906993  38.8343833  70.9691313
  49.9946993  48.8263833  78.9141313  49.3276993  49.3143833  79.1901313
  50.6746993  49.3713833  78.9431313  49.9966993  48.9783833  78.9591313
  50.0606993  45.5103833  74.0171313  49.8756993  44.6713833  74.1691313
  50.7196993  45.4743833  73.4471313  50.1306993  45.3813833  73.9551313
  66.4186993  38.4003833  73.3451313  67.1646993  37.9933833  73.5441313
  66.6816993  39.1153833  72.9201313  66.5676993  38.4463833  73.3121313
  60.3616993  50.8863833  77.9211313  59.8386993  51.5203833  77.6281313
  60.6716993  50.5223833  77.1921313  60.3296993  50.9263833  77.7701313
  50.2326993  49.6743833  73.5921313  50.7846993  50.2433833  73.9561313
  50.0006993  49.1593833  74.2571313  50.2796993  49.6823833  73.7441313
  54.4366993  48.6743833  80.6811313  54.9036993  48.9633833  81.3591313
  55.0086993  48.1963833  80.2271313  54.5906993  48.6463833  80.7141313
  62.8726993  40.6883833  78.4181313  63.2166993  40.8403833  79.2051313
  62.4196993  39.9503833  78.5311313  62.8566993  40.6013833  78.5511313
  50.0626993  48.1233833  71.2201313  50.8186993  47.6913833  71.2781313
  50.0776993  48.6553833  71.9111313  50.1766993  48.1383833  71.3311313
  51.0026993  46.3443833  79.2251313  51.4336993  46.2153833  78.4781313
  50.7976993  47.1923833  79.1991313  51.0356993  46.4503833  79.1111313
  57.3486993  39.9083833  72.8751313  57.3466993  39.7913833  72.0101313
  57.1676993  40.7563833  72.9671313  57.3216993  40.0163833  72.7611313
  55.0866993  49.8603833  77.5071313  55.2126993  50.7033833  77.6941313
  55.7546993  49.4613833  77.9031313  55.2046993  49.9263833  77.5931313
  53.7016993  42.7403833  72.5091313  53.5736993  42.2923833  73.2471313
  53.1196993  42.3983833  71.9571313  53.5966993  42.6233833  72.5371313
  53.8686993  44.5703833  79.1081313  53.0876993  44.5113833  78.7251313
  53.9406993  43.8183833  79.5451313  53.7636993  44.4513833  79.1161313
  64.1936993  42.0203833  80.9721313  63.5316993  42.3483833  81.4351313
  64.3806993  42.6543833  80.4031313  64.1236993  42.1623833  80.9561313
  62.3866993  39.9893833  74.4831313  62.8766993  40.7063833  74.4061313
  61.5966993  40.2503833  74.2201313  62.3426993  40.1333833  74.4331313
  58.9686993  41.4593833  80.2081313  59.4486993  42.1583833  80.4161313
  59.3416993  40.8123833  80.6591313  59.0946993  41.4673833  80.3051313
  61.1576993  44.6283833  72.4821313  61.1496993  45.3503833  71.9921313
  60.5186993  44.7633833  73.0591313  61.0626993  44.7553833  72.4951313
  66.1296993  48.4983833  76.4631313  66.4856993  48.1483833  77.1781313
  66.1216993  47.8373833  75.8931313  66.1816993  48.3483833  76.4841313
  62.1746993  51.5643833  80.3071313  61.5716993  51.2683833  79.7501313
  62.7196993  52.0163833  79.7981313  62.1656993  51.5873833  80.1491313
  62.1876993  48.4153833  79.7071313  61.3906993  48.6393833  79.9811313
  62.4456993  47.8213833  80.2921313  62.1076993  48.3603833  79.8341313
  56.0796993  53.2273833  74.1551313  55.9326993  52.4513833  74.5261313
  56.7686993  53.0803833  73.6401313  56.1596993  53.0903833  74.1341313
  55.7506993  36.9703833  72.1431313  55.8476993  36.8633833  73.0041313
  55.0426993  37.4763833  72.0781313  55.6606993  37.0293833  72.2611313
  58.3716993  52.7433833  72.5571313  58.9936993  52.9063833  73.1471313
  58.4076993  53.4343833  72.0251313  58.4686993  52.8693833  72.5661313
  52.8726993  45.2773833  73.3861313  53.1966993  44.4983833  73.1641313
  53.5186993  45.6453833  73.8411313  53.0156993  45.2163833  73.4201313
  49.8696993  36.9383833  74.3541313  49.9986993  36.2303833  73.8621313
  49.5026993  36.6203833  75.0791313  49.8346993  36.7863833  74.3891313
  59.5626993  44.6193833  74.8111313  59.6216993  45.2693833  75.3901313
  59.3736993  43.9233833  75.3021313  59.5436993  44.6123833  74.9691313
  64.7886993  48.9483833  80.6801313  64.3096993  49.2463833  80.0141313
  64.4326993  48.1723833  80.8581313  64.6656993  48.8773833  80.6081313
  54.0586993  39.1363833  71.3231313  53.5476993  39.1893833  70.6171313
  54.8426993  39.3763833  71.0271313  54.0986993  39.1793833  71.1751313
  58.7856993  46.6663833  79.2421313  57.9386993  46.4723833  79.3231313
  59.1096993  46.5013833  80.0351313  58.7076993  46.6133833  79.3711313
  55.5376993  53.3963833  70.1281313  55.9766993  52.6993833  70.4161313
  55.7446993  54.0203833  70.7011313  55.6336993  53.3853833  70.2551313
  52.6336993  46.3593833  81.5581313  53.3556993  46.8473833  81.5211313
  52.3636993  46.3293833  80.7291313  52.7006993  46.4273833  81.4301313
  55.8636993  41.5303833  78.2931313  56.7096993  41.3403833  78.3911313
  55.4936993  40.7533833  78.1551313  55.9336993  41.3873833  78.2871313
  68.4806993  53.1143833  72.6201313  69.1746993  52.6473833  72.3721313
  67.9416993  52.5163833  72.9571313  68.5036993  52.9563833  72.6331313
  50.6846993  42.8683833  74.9481313  51.1736993  42.5763833  75.6091313
  50.8136993  42.2753833  74.3211313  50.7756993  42.7373833  74.9531313
  55.2096993  44.3023833  70.4341313  54.5996993  43.8973833  70.9081313
  54.8236993  44.4203833  69.6611313  55.0626993  44.2593833  70.3901313
  66.9756993  45.9613833  79.2361313  66.6896993  46.3623833  79.9561313
  67.8356993  45.8993833  79.3631313  67.0606993  46.0113833  79.3611313
  56.6646993  42.7633833  73.1441313  56.9366993  43.5893833  73.2111313
  55.8016993  42.8383833  73.0481313  56.5776993  42.8963833  73.1391313
  50.1446993  38.7333833  79.6801313  50.1886993  39.0773833  78.8791313
  50.8996993  38.9703833  80.0471313  50.2626993  38.8193833  79.6161313
  68.1066993  51.5943833  79.7651313  68.3966993  51.8513833  78.9841313
  68.8016993  51.6903833  80.2841313  68.2526993  51.6463833  79.7261313
  64.7116993  50.1973833  71.7471313  65.0456993  49.3913833  71.7821313
  63.9566993  50.1253833  72.1771313  64.6496993  50.0673833  71.8161313
  65.1936993  42.0313833  77.4061313  64.4486993  41.7083833  77.7241313
  65.1956993  42.8573833  77.6861313  65.0836993  42.1053833  77.4941313
  62.0856993  48.0723833  71.1501313  62.7696993  47.5583833  70.9811313
  61.6686993  48.1183833  70.3851313  62.1246993  48.0033833  71.0121313
  58.5476993  53.0383833  77.1731313  59.0936993  53.7173833  77.2271313
  58.1976993  53.1203833  76.3781313  58.5766993  53.1513833  77.0631313
  56.7306993  51.2663833  80.5621313  56.1066993  51.8483833  80.3801313
  56.9786993  50.9803833  79.7761313  56.6746993  51.3103833  80.4191313
  66.8116993  42.5963833  71.3941313  67.1896993  43.2733833  70.9941313
  65.9696993  42.8203833  71.4251313  66.7426993  42.7293833  71.3391313
  58.3246993  46.0423833  70.4771313  57.5196993  45.8653833  70.1921313
  58.2916993  46.8933833  70.6691313  58.2006993  46.1413833  70.4641313
  54.2546993  42.1093833  80.6271313  54.6946993  42.0063833  79.8811313
  54.7996993  41.7963833  81.2321313  54.3996993  42.0483833  80.6061313
  64.5066993  42.1953833  74.7691313  64.7136993  41.9943833  75.5931313
  65.2626993  42.4633833  74.4271313  64.6486993  42.2053833  74.8401313
  57.8016993  37.0943833  80.6741313  56.9756993  36.9453833  80.9111313
  57.7616993  37.1293833  79.8031313  57.6736993  37.0773833  80.5801313
  65.5286993  38.2783833  76.2431313  64.8146993  37.8073833  76.4141313
  65.3666993  38.6193833  75.4571313  65.3996993  38.2593833  76.1521313
  65.9716993  46.2223833  74.6231313  66.4476993  45.4933833  74.5751313
  65.1506993  45.9363833  74.5471313  65.9206993  46.0723833  74.6041313
  53.4306993  40.2363833  73.9341313  53.5566993  39.9073833  73.1361313
  52.6186993  39.9873833  74.1331313  53.3296993  40.1513833  73.8461313
  62.1876993  47.3893833  76.9781313  62.2636993  47.7303833  77.7771313
  62.3566993  46.5423833  77.0991313  62.2236993  47.3143833  77.1141313
  59.7096993  46.6633833  76.5431313  59.4116993  46.3483833  77.3001313
  60.4046993  47.1363833  76.7781313  59.7686993  46.6863833  76.6901313
  63.6386993  53.6193833  79.0731313  63.1876993  54.2623833  79.4521313
  64.3466993  53.5403833  79.5781313  63.6766993  53.7023833  79.2041313
  66.7416993  43.3353833  74.0651313  66.8446993  43.2773833  73.2011313
  67.4826993  43.0033833  74.3831313  66.8666993  43.2783833  73.9841313
  60.6616993  50.3003833  75.1721313  60.4566993  51.1333833  75.0131313
  59.8866993  49.9183833  75.2941313  60.5166993  50.3673833  75.1671313
  52.0356993  41.8573833  70.4671313  51.3636993  41.8713833  71.0231313
  52.1306993  41.0093833  70.2831313  51.9506993  41.7343833  70.5221313
  60.7166993  38.4713833  78.0571313  60.0166993  38.9893833  78.0011313
  60.7546993  38.0913833  77.2731313  60.6186993  38.4923833  77.9331313
  56.0236993  50.5623833  71.5811313  56.4646993  50.6423833  72.3291313
  55.2186993  50.3463833  71.8391313  55.9696993  50.5423833  71.7301313
  64.3146993  38.9873833  80.8571313  65.1696993  39.0863833  81.0021313
  63.9456993  39.5403833  81.4221313  64.3866993  39.0843833  80.9621313
  64.6186993  44.2673833  79.3481313  65.2846993  44.8083833  79.5081313
  64.2736993  44.5783833  78.6091313  64.6656993  44.3933833  79.2631313
  64.9316993  52.3333833  75.1551313  64.7576993  51.6793833  75.7051313
  65.6446993  52.0623833  74.7321313  65.0116993  52.1963833  75.1741313
  53.3526993  49.6323833  72.1821313  53.1086993  49.3253833  72.9621313
  53.3196993  48.9293833  71.6661313  53.3116993  49.4833833  72.2211313
  56.1716993  47.8773833  70.9251313  55.3536993  47.6093833  71.0651313
  56.1436993  48.7293833  71.1101313  56.0466993  47.9643833  70.9731313
  59.8746993  38.9383833  81.0581313  59.1376993  38.4843833  81.1711313
  60.4456993  38.5363833  81.5811313  59.8496993  38.8113833  81.1521313
  58.1736993  36.5193833  70.8891313  58.2516993  36.7663833  70.0561313
  57.4306993  36.8963833  71.1471313  58.0756993  36.6113833  70.8041313
  65.5236993  51.6853833  81.1011313  66.0506993  51.6023833  80.4101313
  65.1326993  50.9073833  81.1551313  65.5436993  51.5583833  81.0071313
  62.0376993  37.1293833  80.3091313  62.7076993  37.6733833  80.4361313
  61.5346993  37.5533833  79.7361313  62.0626993  37.2723833  80.2431313
  61.3966993  42.9373833  77.8021313  61.9476993  42.3303833  78.1021313
  60.9716993  43.2003833  78.5171313  61.4156993  42.8863833  77.9511313
  51.6446993  41.5873833  77.2881313  51.2766993  41.8893833  78.0191313
  52.1786993  40.9583833  77.5721313  51.6686993  41.5393833  77.4381313
  63.3666993  44.7683833  74.3641313  63.4346993  43.9183833  74.5451313
  62.5436993  44.8543833  74.0861313  63.2546993  44.6553833  74.3501313
  53.1186993  53.2623833  73.5741313  52.9736993  53.4183833  72.7281313
  53.9846993  53.3413833  73.6521313  53.2256993  53.2973833  73.4611313
  57.2856993  45.6593833  73.3021313  57.3856993  45.7983833  72.4471313
  58.1036993  45.5993833  73.5981313  57.4206993  45.6703833  73.2191313
  66.4456993  53.7233833  70.7821313  67.0826993  53.5893833  71.3631313
  66.1046993  52.9293833  70.6651313  66.4896993  53.5863833  70.8501313
  62.5206993  49.9883833  73.1041313  62.2696993  49.8603833  73.9301313
  62.2036993  49.2933833  72.6831313  62.4366993  49.8673833  73.1641313
  67.1646993  41.6463833  81.2241313  66.3316993  41.8963833  81.1521313
  67.1086993  40.8063833  81.4531313  67.0336993  41.5593833  81.2471313
  53.8056993  52.0773833  80.0511313  53.7266993  51.2673833  79.7351313
  53.3616993  52.5643833  79.4791313  53.7286993  52.0293833  79.9201313
  59.4066993  48.1963833  72.5341313  60.1236993  47.8493833  72.1781313
  59.3726993  48.9963833  72.1861313  59.5076993  48.2633833  72.4301313
  60.8156993  36.8373833  56.7728903  60.5706993  37.3253833  56.0928903
  61.6786993  36.7643833  56.6728903  60.9066993  36.8983833  56.6578903
  60.6246993  43.7533833  61.4438903  60.1006993  44.3493833  61.8068903
  61.0216993  43.3853833  62.1278903  60.6056993  43.7873833  61.5988903
  66.7686993  51.1943833  54.4148903  67.4696993  50.6753833  54.4108903
  66.1816993  50.7493833  53.9458903  66.7856993  51.0513833  54.3448903
  63.2956993  44.8203833  58.1198903  63.3756993  44.8243833  57.2508903
  62.7116993  44.1883833  58.2688903  63.2206993  44.7273833  58.0138903
  57.2846993  37.9243833  55.9278903  57.2146993  38.6013833  55.3818903
  58.0256993  37.5363833  55.6788903  57.3836993  37.9673833  55.8098903
  50.4336993  50.6283833  63.1548903  50.5626993  50.3483833  63.9708903
  49.8236993  50.0873833  62.8458903  50.3626993  50.5073833  63.2298903
  57.0076993  48.1533833  68.2218903  56.7716993  48.1503833  69.0618903
  56.2596993  48.0053833  67.7978903  56.8616993  48.1303833  68.2828903
  60.1096993  42.8103833  67.5398903  59.2616993  42.7113833  67.3618903
  60.1386993  43.5553833  67.9938903  59.9886993  42.9063833  67.5808903
  64.6676993  35.7703833  66.6538903  64.5096993  36.5393833  66.2718903
  63.8956993  35.5503833  66.9978903  64.5296993  35.8513833  66.6488903
  57.4566993  37.4853833  58.8688903  57.5296993  38.3453833  58.9978903
  57.4186993  37.4103833  58.0008903  57.4616993  37.6013833  58.7598903
  56.6706993  39.8603833  70.1588903  56.7876993  39.4063833  69.4228903
  56.9586993  40.6583833  69.9558903  56.7306993  39.9113833  70.0198903
  67.5236993  40.3843833  57.4628903  67.1776993  41.0623833  57.8888903
  66.8876993  39.7863833  57.4788903  67.3786993  40.3963833  57.5278903
  52.4036993  39.4573833  69.1428903  51.6256993  39.0673833  69.0708903
  52.8946993  39.0453833  68.5518903  52.3606993  39.3383833  69.0448903
  59.0526993  37.1003833  68.3108903  59.2306993  36.2913833  68.0358903
  58.9096993  37.5413833  67.5718903  59.0576993  37.0463833  68.1608903
  67.1986993  38.7073833  62.8318903  67.9556993  38.7793833  62.4038903
  67.2616993  37.9343833  63.2308903  67.3196993  38.6043833  62.8268903
  62.0896993  50.3393833  67.2708903  62.0556993  50.7213833  68.0548903
  62.9436993  50.2973833  67.0998903  62.2106993  50.3893833  67.3618903
  60.5416993  53.5033833  64.7688903  61.3096993  53.4233833  64.3628903
  59.9586993  53.3823833  64.1308903  60.5686993  53.4733833  64.6148903
  58.5906993  40.1163833  58.8018903  58.6646993  40.6843833  58.1438903
  58.7116993  40.6083833  59.5118903  58.6186993  40.2733833  58.8098903
  54.1916993  50.8613833  66.4258903  55.0326993  50.9243833  66.2038903
  54.1546993  51.2583833  67.2018903  54.3106993  50.9293833  66.5078903
  62.3826993  40.2863833  64.6898903  62.2876993  40.6053833  65.4958903
  61.7896993  39.6473833  64.6518903  62.2806993  40.2383833  64.8038903
  56.9046993  46.3103833  63.7648903  56.9576993  47.1573833  63.9668903
  56.6196993  45.9403833  64.5018903  56.8706993  46.3803833  63.9028903
  63.0816993  47.0053833  62.8948903  62.5676993  46.5933833  63.4658903
  62.9556993  47.8493833  63.0758903  62.9876993  47.0693833  63.0058903
  63.6386993  36.2303833  57.5258903  63.6876993  35.9123833  58.3368903
  63.9616993  35.5863833  57.0328903  63.6936993  36.0883833  57.5728903
  49.7256993  50.6813833  69.9758903  50.4816993  51.0303833  70.2338903
  49.9026993  49.8283833  69.9188903  49.8636993  50.6063833  70.0058903
  66.1026993  40.4663833  65.8338903  66.8746993  40.2413833  66.1708903
  65.6276993  40.6833833  66.5338903  66.1466993  40.4653833  65.9868903
  66.3346993  47.4443833  53.0218903  66.4536993  47.1573833  53.8368903
  67.1416993  47.4653833  52.6918903  66.4706993  47.4053833  53.0938903
  68.5686993  51.9533833  67.2758903  67.8866993  52.2633833  66.8288903
  68.1996993  51.4953833  67.9208903  68.4126993  51.9313833  67.3048903
  68.4166993  38.8423833  52.0598903  67.7546993  38.2743833  52.0828903
  68.2236993  39.3543833  51.3798903  68.2906993  38.8343833  51.9628903
  57.6416993  42.5363833  70.0038903  57.1576993  43.1133833  70.4458903
  57.6136993  42.8313833  69.1828903  57.5656993  42.6653833  69.9478903
  68.7396993  43.2203833  64.6158903  68.9546993  42.4203833  64.3398903
  67.8896993  43.2803833  64.4268903  68.6456993  43.1113833  64.5468903
  66.4186993  38.4003833  54.3388903  67.1646993  37.9933833  54.5378903
  66.6816993  39.1153833  53.9138903  66.5676993  38.4463833  54.3058903
  62.8726993  40.6883833  59.4118903  63.2166993  40.8403833  60.1988903
  62.4196993  39.9503833  59.5248903  62.8566993  40.6013833  59.5448903
  66.4026993  52.3353833  65.3658903  65.7316993  52.8493833  65.5838903
  66.4656993  52.4353833  64.5018903  66.3126993  52.4263833  65.2708903
  53.2166993  43.3433833  68.3628903  52.6806993  42.8373833  68.8308903
  53.2366993  42.9533833  67.5828903  53.1396993  43.2103833  68.3168903
  64.1936993  42.0203833  61.9658903  63.5316993  42.3483833  62.4288903
  64.3806993  42.6543833  61.3968903  64.1236993  42.1623833  61.9498903
  60.8386993  37.9263833  65.3948903  60.9876993  37.1013833  65.1518903
  61.2176993  37.9813833  66.1788903  60.9166993  37.8123833  65.4748903
  62.3866993  39.9893833  55.4768903  62.8766993  40.7063833  55.3998903
  61.5966993  40.2503833  55.2138903  62.3426993  40.1333833  55.4268903
  52.0976993  45.6623833  69.1288903  52.0606993  46.1633833  68.4148903
  52.4286993  44.9103833  68.8338903  52.1406993  45.6243833  68.9798903
  63.7006993  47.8673833  67.3868903  64.1846993  48.5853833  67.4848903
  64.0946993  47.4403833  66.7358903  63.8306993  47.9103833  67.3048903
  57.9966993  50.7123833  68.5638903  58.3506993  50.5343833  69.3408903
  57.5606993  49.9833833  68.3648903  57.9846993  50.5783833  68.6498903
  58.9686993  41.4593833  61.2018903  59.4486993  42.1583833  61.4098903
  59.3416993  40.8123833  61.6528903  59.0946993  41.4673833  61.2988903
  66.1296993  48.4983833  57.4568903  66.4856993  48.1483833  58.1718903
  66.1216993  47.8373833  56.8868903  66.1816993  48.3483833  57.4778903
  65.4476993  46.4133833  65.5468903  65.5026993  46.5383833  64.6848903
  66.2006993  46.7333833  65.8488903  65.5666993  46.4783833  65.4638903
  61.6386993  51.7623833  69.8238903  61.8026993  52.0453833  70.6328903
  61.9016993  52.4233833  69.3188903  61.7016993  51.9023833  69.8688903
  66.4796993  36.7113833  68.5338903  65.8426993  36.3113833  68.0918903
  66.5056993  36.2803833  69.2918903  66.3896993  36.5893833  68.5798903
  61.1786993  46.2193833  65.1468903  61.0236993  46.8293833  65.7508903
  61.7126993  45.6613833  65.5528903  61.2346993  46.2273833  65.2958903
  64.7886993  48.9483833  61.6738903  64.3096993  49.2463833  61.0078903
  64.4326993  48.1723833  61.8518903  64.6656993  48.8773833  61.6018903
  68.4806993  53.1143833  53.6138903  69.1746993  52.6473833  53.3658903
  67.9416993  52.5163833  53.9508903  68.5036993  52.9563833  53.6268903
  65.7196993  45.8903833  62.7928903  65.7126993  45.1143833  63.1908903
  64.8786993  46.1243833  62.7858903  65.5946993  45.8103833  62.8508903
  66.9756993  45.9613833  60.2298903  66.6896993  46.3623833  60.9498903
  67.8356993  45.8993833  60.3568903  67.0606993  46.0113833  60.3548903
  64.6376993  39.8853833  68.7698903  64.1126993  40.3443833  69.2938903
  64.2766993  39.0903833  68.7638903  64.5066993  39.8353833  68.8458903
  68.1066993  51.5943833  60.7588903  68.3966993  51.8513833  59.9778903
  68.8016993  51.6903833  61.2778903  68.2526993  51.6463833  60.7198903
  63.1296993  43.4543833  68.8458903  63.2026993  43.5583833  69.7088903
  62.4956993  44.0123833  68.6248903  63.0466993  43.5523833  68.9408903
  65.3976993  43.7733833  67.2108903  65.7166993  44.5593833  67.4138903
  65.0276993  43.5033833  67.9538903  65.3906993  43.8493833  67.3508903
  65.1936993  42.0313833  58.3998903  64.4486993  41.7083833  58.7178903
  65.1956993  42.8573833  58.6798903  65.0836993  42.1053833  58.4878903
  68.0956993  44.3153833  69.9458903  68.0436993  43.9743833  69.1448903
  68.8326993  44.7823833  69.9238903  68.1966993  44.3343833  69.8238903
  67.6336993  47.9913833  66.1518903  68.2616993  47.4423833  65.8958903
  67.5726993  48.5563833  65.4898903  67.7176993  47.9943833  66.0158903
  54.7466993  48.1723833  66.8458903  53.9406993  47.8823833  67.0128903
  54.6576993  49.0403833  66.8518903  54.6146993  48.2573833  66.8708903
  64.1056993  38.3613833  65.8608903  64.8496993  38.8133833  65.7978903
  63.5396993  38.8313833  65.3918903  64.1326993  38.4983833  65.7828903
  59.2836993  45.6453833  62.9388903  59.7596993  46.0193833  63.5668903
  58.4606993  45.7793833  63.1978903  59.2326993  45.7203833  63.0698903
  55.9936993  41.2483833  65.6798903  56.1546993  40.5043833  66.1068903
  55.9486993  40.9993833  64.8448903  56.0106993  41.1013833  65.6198903
  65.3906993  36.3413833  63.5308903  65.1106993  37.1663833  63.4868903
  66.1066993  36.3943833  64.0268903  65.4556993  36.4713833  63.5978903
  57.7456993  37.0563833  65.5598903  58.4506993  37.3763833  65.1578903
  57.9866993  36.2493833  65.7868903  57.8846993  36.9843833  65.5338903
  61.0396993  47.9003833  68.5448903  61.7966993  48.1863833  68.2188903
  60.4926993  47.9523833  67.8668903  61.0706993  47.9503833  68.3958903
  64.9486993  50.4503833  67.0488903  65.2946993  50.7203833  67.8028903
  65.2426993  51.0323833  66.4688903  65.0436993  50.5763833  67.0748903
  66.8116993  42.5963833  52.3878903  67.1896993  43.2733833  51.9878903
  65.9696993  42.8203833  52.4188903  66.7426993  42.7293833  52.3328903
  62.2706993  41.2113833  67.2128903  61.6226993  41.6813833  67.5608903
  62.8356993  41.1223833  67.8718903  62.2586993  41.2673833  67.3618903
  61.9586993  42.7483833  63.5108903  62.2606993  43.1683833  64.2138903
  61.9946993  41.9083833  63.7428903  62.0086993  42.6863833  63.6488903
  59.3836993  52.9153833  67.4358903  59.8616993  52.3153833  67.0198903
  59.0326993  52.4723833  68.1008903  59.4026993  52.7613833  67.4728903
  64.5066993  42.1953833  55.7628903  64.7136993  41.9943833  56.5868903
  65.2626993  42.4633833  55.4208903  64.6486993  42.2053833  55.8338903
  57.8016993  37.0943833  61.6678903  56.9756993  36.9453833  61.9048903
  57.7616993  37.1293833  60.7968903  57.6736993  37.0773833  61.5738903
  65.5286993  38.2783833  57.2368903  64.8146993  37.8073833  57.4078903
  65.3666993  38.6193833  56.4508903  65.3996993  38.2593833  57.1458903
  65.9716993  46.2223833  55.6168903  66.4476993  45.4933833  55.5688903
  65.1506993  45.9363833  55.5408903  65.9206993  46.0723833  55.5978903
  59.4426993  48.1343833  66.4558903  58.6476993  48.0703833  66.8068903
  59.5136993  48.9813833  66.2608903  59.3356993  48.2493833  66.4788903
  50.3666993  37.4923833  67.7028903  50.2266993  38.2873833  67.3718903
  49.5806993  37.2493833  67.9918903  50.2296993  37.5743833  67.6968903
  59.9316993  50.7813833  65.5638903  60.6186993  50.6673833  66.0888903
  60.0656993  51.5723833  65.2198903  60.0526993  50.8813833  65.5908903
  68.1076993  43.3903833  67.3748903  67.2526993  43.2683833  67.5008903
  68.2606993  42.9953833  66.6118903  68.0036993  43.3133833  67.2808903
  62.6206993  44.0553833  65.9508903  62.3656993  43.3363833  66.3728903
  63.4416993  44.1713833  66.2208903  62.7046993  43.9663833  66.0528903
  60.5546993  45.2453833  69.1378903  60.8776993  45.9313833  68.7058903
  59.8506993  45.5683833  69.5398903  60.4976993  45.3943833  69.1328903
  60.3396993  48.7093833  62.9968903  59.6456993  49.1113833  63.3398903
  61.0166993  49.1423833  63.3358903  60.3366993  48.8323833  63.0978903
  65.7166993  51.3023833  69.5768903  66.4926993  50.9123833  69.6598903
  65.2476993  50.9663833  70.2318903  65.7616993  51.1953833  69.6858903
  66.7416993  43.3353833  55.0588903  66.8446993  43.2773833  54.1948903
  67.4826993  43.0033833  55.3768903  66.8666993  43.2783833  54.9778903
  53.7366993  38.1053833  67.0298903  53.6556993  37.2613833  67.2358903
  53.4226993  38.1493833  66.2168903  53.6786993  37.9873833  66.9398903
  65.8436993  43.4813833  64.4148903  65.8416993  42.6183833  64.5388903
  65.9106993  43.8053833  65.2218903  65.8536993  43.4013833  64.5518903
  61.7226993  38.2813833  68.1968903  61.8146993  38.9933833  68.6908903
  61.0856993  37.8363833  68.5938903  61.6416993  38.3203833  68.3288903
  60.7166993  38.4713833  59.0508903  60.0166993  38.9893833  58.9948903
  60.7546993  38.0913833  58.2668903  60.6186993  38.4923833  58.9268903
  64.3146993  38.9873833  61.8508903  65.1696993  39.0863833  61.9958903
  63.9456993  39.5403833  62.4158903  64.3866993  39.0843833  61.9558903
  55.3426993  45.2133833  66.2278903  54.9466993  45.9873833  66.3028903
  54.9366993  44.8403833  65.5518903  55.2246993  45.2723833  66.1388903
  64.6186993  44.2673833  60.3418903  65.2846993  44.8083833  60.5018903
  64.2736993  44.5783833  59.6028903  64.6656993  44.3933833  60.2568903
  67.7896993  36.8253833  65.0068903  67.7376993  36.7813833  65.8768903
  68.4766993  36.3223833  64.8168903  67.8836993  36.7453833  65.1068903
  59.8746993  38.9383833  62.0518903  59.1376993  38.4843833  62.1648903
  60.4456993  38.5363833  62.5748903  59.8496993  38.8113833  62.1458903
  62.6066993  49.7863833  63.8398903  62.8126993  50.0873833  64.6318903
  62.5456993  50.5083833  63.3548903  62.6276993  49.9373833  63.8848903
  62.1406993  54.0003833  68.0858903  61.3876993  53.9823833  67.6448903
  62.3086993  54.8523833  68.1698903  62.0546993  54.1233833  68.0328903
  57.3776993  43.2673833  67.2558903  57.0556993  42.6913833  66.6858903
  57.0186993  44.0223833  67.0098903  57.2776993  43.2933833  67.1358903
  67.4186993  48.4253833  63.2978903  67.3866993  47.5633833  63.1628903
  66.7256993  48.7273833  62.8638903  67.3116993  48.3423833  63.2138903
  55.8126993  53.6233833  67.5038903  55.8536993  53.7493833  68.3668903
  56.4636993  53.0633833  67.3478903  55.9146993  53.5593833  67.6088903
  62.0376993  37.1293833  61.3028903  62.7076993  37.6733833  61.4298903
  61.5346993  37.5533833  60.7298903  62.0626993  37.2723833  61.2368903
  53.4056993  52.0063833  68.8638903  54.0006993  52.4373833  69.3358903
  53.0416993  52.6303833  68.3748903  53.4396993  52.1623833  68.8608903
  61.3966993  42.9373833  58.7958903  61.9476993  42.3303833  59.0958903
  60.9716993  43.2003833  59.5108903  61.4156993  42.8863833  58.9448903
  51.3326993  49.9953833  65.7928903  50.7586993  50.4113833  66.3018903
  52.0656993  50.4603833  65.8878903  51.3566993  50.1253833  65.8818903
  63.3666993  44.7683833  55.3578903  63.4346993  43.9183833  55.5388903
  62.5436993  44.8543833  55.0798903  63.2546993  44.6553833  55.3438903
  66.4456993  53.7233833  51.7758903  67.0826993  53.5893833  52.3568903
  66.1046993  52.9293833  51.6588903  66.4896993  53.5863833  51.8438903
  66.6406993  46.1413833  68.5088903  67.2746993  45.9713833  69.0828903
  67.0576993  46.5443833  67.8568903  66.7956993  46.1763833  68.4978903
  67.2656993  40.7053833  69.2468903  67.0696993  41.3493833  69.8018903
  66.5436993  40.2153833  69.2388903  67.1306993  40.7283833  69.3278903
  67.1646993  41.6463833  62.2178903  66.3316993  41.8963833  62.1458903
  67.1086993  40.8063833  62.4468903  67.0336993  41.5593833  62.2408903
  56.4246993  38.6343833  67.4118903  56.6586993  38.0583833  66.7988903
  55.5826993  38.4533833  67.5528903  56.3346993  38.5223833  67.3418903
  64.0516993  46.2523833  69.8638903  64.9226993  46.2163833  69.8278903
  63.8326993  46.6723833  69.1318903  64.1486993  46.3083833  69.7508903
  64.6676993  35.7703833  47.6476493  64.5096993  36.5393833  47.2656493
  63.8956993  35.5503833  47.9916493  64.5296993  35.8513833  47.6426493
  67.5236993  40.3843833  38.4566493  67.1776993  41.0623833  38.8826493
  66.8876993  39.7863833  38.4726493  67.3786993  40.3963833  38.5216493
  67.1986993  38.7073833  43.8256493  67.9556993  38.7793833  43.3976493
  67.2616993  37.9343833  44.2246493  67.3196993  38.6043833  43.8206493
  66.8186993  54.1063833  38.6636493  66.3636993  54.8233833  38.8646493
  66.2046993  53.5353833  38.4216493  66.6606993  54.1283833  38.6576493
  62.3826993  40.2863833  45.6836493  62.2876993  40.6053833  46.4896493
  61.7896993  39.6473833  45.6456493  62.2806993  40.2383833  45.7976493
  66.1026993  40.4663833  46.8276493  66.8746993  40.2413833  47.1646493
  65.6276993  40.6833833  47.5276493  66.1466993  40.4653833  46.9806493
  68.5686993  51.9533833  48.2696493  67.8866993  52.2633833  47.8226493
  68.1996993  51.4953833  48.9146493  68.4126993  51.9313833  48.2986493
  68.4166993  38.8423833  33.0536493  67.7546993  38.2743833  33.0766493
  68.2236993  39.3543833  32.3736493  68.2906993  38.8343833  32.9566493
  68.7396993  43.2203833  45.6096493  68.9546993  42.4203833  45.3336493
  67.8896993  43.2803833  45.4206493  68.6456993  43.1113833  45.5406493
  66.4186993  38.4003833  35.3326493  67.1646993  37.9933833  35.5316493
  66.6816993  39.1153833  34.9076493  66.5676993  38.4463833  35.2996493
  62.8726993  40.6883833  40.4056493  63.2166993  40.8403833  41.1926493
  62.4196993  39.9503833  40.5186493  62.8566993  40.6013833  40.5386493
  64.1936993  42.0203833  42.9596493  63.5316993  42.3483833  43.4226493
  64.3806993  42.6543833  42.3906493  64.1236993  42.1623833  42.9436493
  66.4796993  36.7113833  49.5276493  65.8426993  36.3113833  49.0856493
  66.5056993  36.2803833  50.2856493  66.3896993  36.5893833  49.5736493
  68.4806993  53.1143833  34.6076493  69.1746993  52.6473833  34.3596493
  67.9416993  52.5163833  34.9446493  68.5036993  52.9563833  34.6206493
  68.1066993  51.5943833  41.7526493  68.3966993  51.8513833  40.9716493
  68.8016993  51.6903833  42.2716493  68.2526993  51.6463833  41.7136493
  65.3976993  43.7733833  48.2046493  65.7166993  44.5593833  48.4076493
  65.0276993  43.5033833  48.9476493  65.3906993  43.8493833  48.3446493
  68.0956993  44.3153833  50.9396493  68.0436993  43.9743833  50.1386493
  68.8326993  44.7823833  50.9176493  68.1966993  44.3343833  50.8176493
  64.1056993  38.3613833  46.8546493  64.8496993  38.8133833  46.7916493
  63.5396993  38.8313833  46.3856493  64.1326993  38.4983833  46.7766493
  65.3906993  36.3413833  44.5246493  65.1106993  37.1663833  44.4806493
  66.1066993  36.3943833  45.0206493  65.4556993  36.4713833  44.5916493
  64.9486993  50.4503833  48.0426493  65.2946993  50.7203833  48.7966493
  65.2426993  51.0323833  47.4626493  65.0436993  50.5763833  48.0686493
  66.8116993  42.5963833  33.3816493  67.1896993  43.2733833  32.9816493
  65.9696993  42.8203833  33.4126493  66.7426993  42.7293833  33.3266493
  65.5286993  38.2783833  38.2306493  64.8146993  37.8073833  38.4016493
  65.3666993  38.6193833  37.4446493  65.3996993  38.2593833  38.1396493
  68.1076993  43.3903833  48.3686493  67.2526993  43.2683833  48.4946493
  68.2606993  42.9953833  47.6056493  68.0036993  43.3133833  48.2746493
  65.7166993  51.3023833  50.5706493  66.4926993  50.9123833  50.6536493
  65.2476993  50.9663833  51.2256493  65.7616993  51.1953833  50.6796493
  65.8436993  43.4813833  45.4086493  65.8416993  42.6183833  45.5326493
  65.9106993  43.8053833  46.2156493  65.8536993  43.4013833  45.5456493
  64.3146993  38.9873833  42.8446493  65.1696993  39.0863833  42.9896493
  63.9456993  39.5403833  43.4096493  64.3866993  39.0843833  42.9496493
  67.7896993  36.8253833  46.0006493  67.7376993  36.7813833  46.8706493
  68.4766993  36.3223833  45.8106493  67.8836993  36.7453833  46.1006493
  62.0376993  37.1293833  42.2966493  62.7076993  37.6733833  42.4236493
  61.5346993  37.5533833  41.7236493  62.0626993  37.2723833  42.2306493
  66.4456993  53.7233833  32.7696493  67.0826993  53.5893833  33.3506493
  66.1046993  52.9293833  32.6526493  66.4896993  53.5863833  32.8376493
  66.6406993  46.1413833  49.5026493  67.2746993  45.9713833  50.0766493
  67.0576993  46.5443833  48.8506493  66.7956993  46.1763833  49.4916493
  67.2656993  40.7053833  50.2406493  67.0696993  41.3493833  50.7956493
  66.5436993  40.2153833  50.2326493  67.1306993  40.7283833  50.3216493
  67.1646993  41.6463833  43.2116493  66.3316993  41.8963833  43.1396493
  67.1086993  40.8063833  43.4406493  67.0336993  41.5593833  43.2346493
  60.8156993  36.8373833  18.7604083  60.5706993  37.3253833  18.0804083
  61.6786993  36.7643833  18.6604083  60.9066993  36.8983833  18.6454083
  66.7686993  51.1943833  16.4024083  67.4696993  50.6753833  16.3984083
  66.1816993  50.7493833  15.9334083  66.7856993  51.0513833  16.3324083
  53.3756993  46.9483833  14.0664083  52.9836993  46.5773833  13.3804083
  53.2956993  46.3503833  14.6954083  53.3056993  46.8053833  14.0574083
  63.2956993  44.8203833  20.1074083  63.3756993  44.8243833  19.2384083
  62.7116993  44.1883833  20.2564083  63.2206993  44.7273833  20.0014083
  57.2846993  37.9243833  17.9154083  57.2146993  38.6013833  17.3694083
  58.0256993  37.5363833  17.6664083  57.3836993  37.9673833  17.7974083
  51.8936993  51.6803833  14.0434083  52.3606993  51.7643833  13.3114083
  52.3486993  51.1023833  14.5124083  52.0296993  51.6073833  14.0044083
  58.1416993  48.6793833  18.1884083  58.4726993  48.0353833  18.6744083
  58.3816993  48.4683833  17.3774083  58.2256993  48.5533833  18.1404083
  64.6676993  35.7703833  28.6414083  64.5096993  36.5393833  28.2594083
  63.8956993  35.5503833  28.9854083  64.5296993  35.8513833  28.6364083
  57.4566993  37.4853833  20.8564083  57.5296993  38.3453833  20.9854083
  57.4186993  37.4103833  19.9884083  57.4616993  37.6013833  20.7474083
  62.1296993  40.4113833  13.1554083  61.6796993  41.0923833  13.4624083
  62.2436993  39.9073833  13.8584083  62.0806993  40.4373833  13.3044083
  56.0856993  50.4643833  17.7374083  55.5066993  50.1893833  18.3294083
  56.7096993  49.8553833  17.7624083  56.0926993  50.3343833  17.8284083
  62.2286993  52.7523833  15.2594083  62.9556993  53.2243833  15.3614083
  62.4576993  51.9583833  15.5394083  62.3706993  52.7053833  15.3164083
  60.3966993  53.1443833  17.2494083  60.6106993  53.6713833  17.9114083
  61.1636993  52.9703833  16.8704083  60.5416993  53.1963833  17.2914083
  67.5236993  40.3843833  19.4504083  67.1776993  41.0623833  19.8764083
  66.8876993  39.7863833  19.4664083  67.3786993  40.3963833  19.5154083
  62.8356993  53.1543833  25.5544083  63.5796993  53.6103833  25.5444083
  62.7146993  52.9403833  24.7174083  62.9276993  53.1903833  25.4294083
  59.6466993  42.0263833  19.0714083  59.9336993  41.7943833  18.2814083
  60.3786993  42.1053833  19.5404083  59.7966993  42.0033833  19.0244083
  60.3686993  42.3653833  14.1924083  60.6496993  43.1533833  14.4414083
  59.5926993  42.5303833  13.8294083  60.2956993  42.5063833  14.1754083
  64.4096993  54.3393833  15.6594083  65.0746993  54.1913833  15.1144083
  64.7696993  54.2563833  16.4494083  64.5616993  54.3053833  15.6954083
  67.1986993  38.7073833  24.8194083  67.9556993  38.7793833  24.3914083
  67.2616993  37.9343833  25.2184083  67.3196993  38.6043833  24.8144083
  59.2276993  50.5363833  14.0084083  59.0466993  51.0813833  14.6654083
  59.9936993  50.8263833  13.7074083  59.3136993  50.6603833  14.0614083
  62.7346993  38.4323833  15.0624083  63.2746993  37.7503833  15.1384083
  62.7966993  38.8303833  15.8364083  62.8236993  38.3903833  15.1884083
  59.9926993  40.8083833  16.3764083  59.4846993  40.1463833  16.1224083
  60.0446993  41.3123833  15.6664083  59.9256993  40.7853833  16.2344083
  60.5416993  53.5033833  26.7564083  61.3096993  53.4233833  26.3504083
  59.9586993  53.3823833  26.1184083  60.5686993  53.4733833  26.6024083
  59.9926993  37.7493833  16.2674083  59.5376993  37.3473833  15.6414083
  60.7656993  37.9043833  15.8924083  60.0396993  37.7133833  16.1194083
  66.8186993  54.1063833  19.6574083  66.3636993  54.8233833  19.8584083
  66.2046993  53.5353833  19.4154083  66.6606993  54.1283833  19.6514083
  58.5906993  40.1163833  20.7894083  58.6646993  40.6843833  20.1314083
  58.7116993  40.6083833  21.4994083  58.6186993  40.2733833  20.7974083
  63.8156993  49.9513833  19.2014083  64.5166993  49.4693833  19.3904083
  63.1556993  49.3823833  19.2464083  63.8216993  49.7963833  19.2354083
  63.6386993  36.2303833  19.5134083  63.6876993  35.9123833  20.3244083
  63.9616993  35.5863833  19.0204083  63.6936993  36.0883833  19.5604083
  66.1026993  40.4663833  27.8214083  66.8746993  40.2413833  28.1584083
  65.6276993  40.6833833  28.5214083  66.1466993  40.4653833  27.9744083
  66.3346993  47.4443833  15.0094083  66.4536993  47.1573833  15.8244083
  67.1416993  47.4653833  14.6794083  66.4706993  47.4053833  15.0814083
  68.5686993  51.9533833  29.2634083  67.8866993  52.2633833  28.8164083
  68.1996993  51.4953833  29.9084083  68.4126993  51.9313833  29.2924083
  64.2296993  43.9813833  14.5944083  64.0096993  44.7123833  14.1724083
  63.7816993  44.0323833  15.3414083  64.1306993  44.0963833  14.6424083
  68.4166993  38.8423833  14.0474083  67.7546993  38.2743833  14.0704083
  68.2236993  39.3543833  13.3674083  68.2906993  38.8343833  13.9504083
  68.7396993  43.2203833  26.6034083  68.9546993  42.4203833  26.3274083
  67.8896993  43.2803833  26.4144083  68.6456993  43.1113833  26.5344083
  50.0606993  45.5103833  16.9984083  49.8756993  44.6713833  17.1504083
  50.7196993  45.4743833  16.4284083  50.1306993  45.3813833  16.9364083
  66.4186993  38.4003833  16.3264083  67.1646993  37.9933833  16.5254083
  66.6816993  39.1153833  15.9014083  66.5676993  38.4463833  16.2934083
  62.8726993  40.6883833  21.3994083  63.2166993  40.8403833  22.1864083
  62.4196993  39.9503833  21.5124083  62.8566993  40.6013833  21.5324083
  50.0626993  48.1233833  14.2014083  50.8186993  47.6913833  14.2594083
  50.0776993  48.6553833  14.8924083  50.1766993  48.1383833  14.3124083
  57.3486993  39.9083833  15.8564083  57.3466993  39.7913833  14.9914083
  57.1676993  40.7563833  15.9484083  57.3216993  40.0163833  15.7424083
  66.4026993  52.3353833  27.3534083  65.7316993  52.8493833  27.5714083
  66.4656993  52.4353833  26.4894083  66.3126993  52.4263833  27.2584083
  53.7016993  42.7403833  15.4904083  53.5736993  42.2923833  16.2284083
  53.1196993  42.3983833  14.9384083  53.5966993  42.6233833  15.5184083
  64.1936993  42.0203833  23.9534083  63.5316993  42.3483833  24.4164083
  64.3806993  42.6543833  23.3844083  64.1236993  42.1623833  23.9374083
  60.8386993  37.9263833  27.3824083  60.9876993  37.1013833  27.1394083
  61.2176993  37.9813833  28.1664083  60.9166993  37.8123833  27.4624083
  62.3866993  39.9893833  17.4644083  62.8766993  40.7063833  17.3874083
  61.5966993  40.2503833  17.2014083  62.3426993  40.1333833  17.4144083
  61.1576993  44.6283833  15.4634083  61.1496993  45.3503833  14.9734083
  60.5186993  44.7633833  16.0404083  61.0626993  44.7553833  15.4764083
  66.1296993  48.4983833  19.4444083  66.4856993  48.1483833  20.1594083
  66.1216993  47.8373833  18.8744083  66.1816993  48.3483833  19.4654083
  56.0796993  53.2273833  17.1364083  55.9326993  52.4513833  17.5074083
  56.7686993  53.0803833  16.6214083  56.1596993  53.0903833  17.1154083
  58.3716993  52.7433833  15.5384083  58.9936993  52.9063833  16.1284083
  58.4076993  53.4343833  15.0064083  58.4686993  52.8693833  15.5474083
  65.4476993  46.4133833  27.5344083  65.5026993  46.5383833  26.6724083
  66.2006993  46.7333833  27.8364083  65.5666993  46.4783833  27.4514083
  61.6386993  51.7623833  31.8114083  61.8026993  52.0453833  32.6204083
  61.9016993  52.4233833  31.3064083  61.7016993  51.9023833  31.8564083
  66.4796993  36.7113833  30.5214083  65.8426993  36.3113833  30.0794083
  66.5056993  36.2803833  31.2794083  66.3896993  36.5893833  30.5674083
  52.8726993  45.2773833  16.3674083  53.1966993  44.4983833  16.1454083
  53.5186993  45.6453833  16.8224083  53.0156993  45.2163833  16.4014083
  59.5626993  44.6193833  17.7924083  59.6216993  45.2693833  18.3714083
  59.3736993  43.9233833  18.2834083  59.5436993  44.6123833  17.9504083
  64.7886993  48.9483833  23.6614083  64.3096993  49.2463833  22.9954083
  64.4326993  48.1723833  23.8394083  64.6656993  48.8773833  23.5894083
  55.5376993  53.3963833  13.1094083  55.9766993  52.6993833  13.3974083
  55.7446993  54.0203833  13.6824083  55.6336993  53.3853833  13.2364083
  68.4806993  53.1143833  15.6014083  69.1746993  52.6473833  15.3534083
  67.9416993  52.5163833  15.9384083  68.5036993  52.9563833  15.6144083
  65.7196993  45.8903833  24.7804083  65.7126993  45.1143833  25.1784083
  64.8786993  46.1243833  24.7734083  65.5946993  45.8103833  24.8384083
  55.2096993  44.3023833  13.4154083  54.5996993  43.8973833  13.8894083
  54.8236993  44.4203833  12.6424083  55.0626993  44.2593833  13.3714083
  66.9756993  45.9613833  22.2174083  66.6896993  46.3623833  22.9374083
  67.8356993  45.8993833  22.3444083  67.0606993  46.0113833  22.3424083
  56.6646993  42.7633833  16.1254083  56.9366993  43.5893833  16.1924083
  55.8016993  42.8383833  16.0294083  56.5776993  42.8963833  16.1204083
  68.1066993  51.5943833  22.7464083  68.3966993  51.8513833  21.9654083
  68.8016993  51.6903833  23.2654083  68.2526993  51.6463833  22.7074083
  65.3976993  43.7733833  29.1984083  65.7166993  44.5593833  29.4014083
  65.0276993  43.5033833  29.9414083  65.3906993  43.8493833  29.3384083
  64.7116993  50.1973833  14.7284083  65.0456993  49.3913833  14.7634083
  63.9566993  50.1253833  15.1584083  64.6496993  50.0673833  14.7974083
  65.1936993  42.0313833  20.3874083  64.4486993  41.7083833  20.7054083
  65.1956993  42.8573833  20.6674083  65.0836993  42.1053833  20.4754083
  68.0956993  44.3153833  31.9334083  68.0436993  43.9743833  31.1324083
  68.8326993  44.7823833  31.9114083  68.1966993  44.3343833  31.8114083
  67.6336993  47.9913833  28.1394083  68.2616993  47.4423833  27.8834083
  67.5726993  48.5563833  27.4774083  67.7176993  47.9943833  28.0034083
  62.0856993  48.0723833  14.1314083  62.7696993  47.5583833  13.9624083
  61.6686993  48.1183833  13.3664083  62.1246993  48.0033833  13.9934083
  64.1056993  38.3613833  27.8484083  64.8496993  38.8133833  27.7854083
  63.5396993  38.8313833  27.3794083  64.1326993  38.4983833  27.7704083
  58.5476993  53.0383833  20.1544083  59.0936993  53.7173833  20.2084083
  58.1976993  53.1203833  19.3594083  58.5766993  53.1513833  20.0444083
  65.3906993  36.3413833  25.5184083  65.1106993  37.1663833  25.4744083
  66.1066993  36.3943833  26.0144083  65.4556993  36.4713833  25.5854083
  64.9486993  50.4503833  29.0364083  65.2946993  50.7203833  29.7904083
  65.2426993  51.0323833  28.4564083  65.0436993  50.5763833  29.0624083
  66.8116993  42.5963833  14.3754083  67.1896993  43.2733833  13.9754083
  65.9696993  42.8203833  14.4064083  66.7426993  42.7293833  14.3204083
  58.3246993  46.0423833  13.4584083  57.5196993  45.8653833  13.1734083
  58.2916993  46.8933833  13.6504083  58.2006993  46.1413833  13.4454083
  64.5066993  42.1953833  17.7504083  64.7136993  41.9943833  18.5744083
  65.2626993  42.4633833  17.4084083  64.6486993  42.2053833  17.8214083
  65.5286993  38.2783833  19.2244083  64.8146993  37.8073833  19.3954083
  65.3666993  38.6193833  18.4384083  65.3996993  38.2593833  19.1334083
  65.9716993  46.2223833  17.6044083  66.4476993  45.4933833  17.5564083
  65.1506993  45.9363833  17.5284083  65.9206993  46.0723833  17.5854083
  62.1876993  47.3893833  19.9594083  62.2636993  47.7303833  20.7584083
  62.3566993  46.5423833  20.0804083  62.2236993  47.3143833  20.0954083
  59.7096993  46.6633833  19.5244083  59.4116993  46.3483833  20.2814083
  60.4046993  47.1363833  19.7594083  59.7686993  46.6863833  19.6714083
  68.1076993  43.3903833  29.3624083  67.2526993  43.2683833  29.4884083
  68.2606993  42.9953833  28.5994083  68.0036993  43.3133833  29.2684083
  63.6386993  53.6193833  22.0544083  63.1876993  54.2623833  22.4334083
  64.3466993  53.5403833  22.5594083  63.6766993  53.7023833  22.1854083
  65.7166993  51.3023833  31.5644083  66.4926993  50.9123833  31.6474083
  65.2476993  50.9663833  32.2194083  65.7616993  51.1953833  31.6734083
  66.7416993  43.3353833  17.0464083  66.8446993  43.2773833  16.1824083
  67.4826993  43.0033833  17.3644083  66.8666993  43.2783833  16.9654083
  60.6616993  50.3003833  18.1534083  60.4566993  51.1333833  17.9944083
  59.8866993  49.9183833  18.2754083  60.5166993  50.3673833  18.1484083
  65.8436993  43.4813833  26.4024083  65.8416993  42.6183833  26.5264083
  65.9106993  43.8053833  27.2094083  65.8536993  43.4013833  26.5394083
  52.0356993  41.8573833  13.4484083  51.3636993  41.8713833  14.0044083
  52.1306993  41.0093833  13.2644083  51.9506993  41.7343833  13.5034083
  60.7166993  38.4713833  21.0384083  60.0166993  38.9893833  20.9824083
  60.7546993  38.0913833  20.2544083  60.6186993  38.4923833  20.9144083
  56.0236993  50.5623833  14.5624083  56.4646993  50.6423833  15.3104083
  55.2186993  50.3463833  14.8204083  55.9696993  50.5423833  14.7114083
  64.3146993  38.9873833  23.8384083  65.1696993  39.0863833  23.9834083
  63.9456993  39.5403833  24.4034083  64.3866993  39.0843833  23.9434083
  64.6186993  44.2673833  22.3294083  65.2846993  44.8083833  22.4894083
  64.2736993  44.5783833  21.5904083  64.6656993  44.3933833  22.2444083
  64.9316993  52.3333833  18.1364083  64.7576993  51.6793833  18.6864083
  65.6446993  52.0623833  17.7134083  65.0116993  52.1963833  18.1554083
  56.1716993  47.8773833  13.9064083  55.3536993  47.6093833  14.0464083
  56.1436993  48.7293833  14.0914083  56.0466993  47.9643833  13.9544083
  67.7896993  36.8253833  26.9944083  67.7376993  36.7813833  27.8644083
  68.4766993  36.3223833  26.8044083  67.8836993  36.7453833  27.0944083
  59.8746993  38.9383833  24.0394083  59.1376993  38.4843833  24.1524083
  60.4456993  38.5363833  24.5624083  59.8496993  38.8113833  24.1334083
  62.6066993  49.7863833  25.8274083  62.8126993  50.0873833  26.6194083
  62.5456993  50.5083833  25.3424083  62.6276993  49.9373833  25.8724083
  62.1406993  54.0003833  30.0734083  61.3876993  53.9823833  29.6324083
  62.3086993  54.8523833  30.1574083  62.0546993  54.1233833  30.0204083
  58.1736993  36.5193833  13.8704083  58.2516993  36.7663833  13.0374083
  57.4306993  36.8963833  14.1284083  58.0756993  36.6113833  13.7854083
  67.4186993  48.4253833  25.2854083  67.3866993  47.5633833  25.1504083
  66.7256993  48.7273833  24.8514083  67.3116993  48.3423833  25.2014083
  65.5236993  51.6853833  24.0824083  66.0506993  51.6023833  23.3914083
  65.1326993  50.9073833  24.1364083  65.5436993  51.5583833  23.9884083
  62.0376993  37.1293833  23.2904083  62.7076993  37.6733833  23.4174083
  61.5346993  37.5533833  22.7174083  62.0626993  37.2723833  23.2244083
  61.3966993  42.9373833  20.7834083  61.9476993  42.3303833  21.0834083
  60.9716993  43.2003833  21.4984083  61.4156993  42.8863833  20.9324083
  63.3666993  44.7683833  17.3454083  63.4346993  43.9183833  17.5264083
  62.5436993  44.8543833  17.0674083  63.2546993  44.6553833  17.3314083
  53.1186993  53.2623833  16.5554083  52.9736993  53.4183833  15.7094083
  53.9846993  53.3413833  16.6334083  53.2256993  53.2973833  16.4424083
  57.2856993  45.6593833  16.2834083  57.3856993  45.7983833  15.4284083
  58.1036993  45.5993833  16.5794083  57.4206993  45.6703833  16.2004083
  66.4456993  53.7233833  13.7634083  67.0826993  53.5893833  14.3444083
  66.1046993  52.9293833  13.6464083  66.4896993  53.5863833  13.8314083
  66.6406993  46.1413833  30.4964083  67.2746993  45.9713833  31.0704083
  67.0576993  46.5443833  29.8444083  66.7956993  46.1763833  30.4854083
  62.5206993  49.9883833  16.0854083  62.2696993  49.8603833  16.9114083
  62.2036993  49.2933833  15.6644083  62.4366993  49.8673833  16.1454083
  67.2656993  40.7053833  31.2344083  67.0696993  41.3493833  31.7894083
  66.5436993  40.2153833  31.2264083  67.1306993  40.7283833  31.3154083
  67.1646993  41.6463833  24.2054083  66.3316993  41.8963833  24.1334083
  67.1086993  40.8063833  24.4344083  67.0336993  41.5593833  24.2284083
  59.4066993  48.1963833  15.5154083  60.1236993  47.8493833  15.1594083
  59.3726993  48.9963833  15.1674083  59.5076993  48.2633833  15.4114083
  60.6246993  43.7533833   4.4251673  60.1006993  44.3493833   4.7881673
  61.0216993  43.3853833   5.1091673  60.6056993  43.7873833   4.5801673
  50.4336993  50.6283833   6.1361673  50.5626993  50.3483833   6.9521673
  49.8236993  50.0873833   5.8271673  50.3626993  50.5073833   6.2111673
  57.0076993  48.1533833  11.2031673  56.7716993  48.1503833  12.0431673
  56.2596993  48.0053833  10.7791673  56.8616993  48.1303833  11.2641673
  56.3876993  40.7593833   5.6851673  57.0656993  40.7773833   5.1361673
  56.3426993  39.9233833   5.9301673  56.4806993  40.6383833   5.6401673
  56.9896993  51.3453833   8.4661673  57.1276993  52.1053833   8.0591673
  57.7806993  50.9803833   8.4931673  57.1266993  51.4043833   8.4101673
  58.0846993  49.2303833   2.9711673  58.4326993  48.4313833   3.0011673
  58.7496993  49.7343833   2.7161673  58.2346993  49.1863833   2.9381673
  60.1096993  42.8103833  10.5211673  59.2616993  42.7113833  10.3431673
  60.1386993  43.5553833  10.9751673  59.9886993  42.9063833  10.5621673
  64.6676993  35.7703833   9.6351673  64.5096993  36.5393833   9.2531673
  63.8956993  35.5503833   9.9791673  64.5296993  35.8513833   9.6301673
  50.3356993  42.9103833   3.3511673  50.0796993  43.7413833   3.2761673
  49.6716993  42.5273833   3.7681673  50.1996993  42.9763833   3.4021673
  53.3646993  37.7273833   3.8421673  52.8436993  37.0993833   3.5341673
  53.9556993  37.2903833   4.3131673  53.3756993  37.5693833   3.8661673
  56.6706993  39.8603833  13.1401673  56.7876993  39.4063833  12.4041673
  56.9586993  40.6583833  12.9371673  56.7306993  39.9113833  13.0011673
  62.8356993  53.1543833   6.5481673  63.5796993  53.6103833   6.5381673
  62.7146993  52.9403833   5.7111673  62.9276993  53.1903833   6.4231673
  52.4036993  39.4573833  12.1241673  51.6256993  39.0673833  12.0521673
  52.8946993  39.0453833  11.5331673  52.3606993  39.3383833  12.0261673
  52.6086993  49.7773833   2.6821673  53.0316993  49.4213833   2.0081673
  52.9326993  49.3553833   3.3741673  52.7186993  49.6623833   2.6851673
  55.8396993  52.6293833   1.9781673  56.6836993  52.7333833   1.7831673
  55.5426993  53.4473833   2.0461673  55.9206993  52.7653833   1.9591673
  59.0526993  37.1003833  11.2921673  59.2306993  36.2913833  11.0171673
  58.9096993  37.5413833  10.5531673  59.0576993  37.0463833  11.1421673
  54.8376993  53.8483833   7.7181673  55.1296993  53.7813833   8.5381673
  54.2116993  53.2433833   7.6731673  54.7886993  53.7493833   7.8331673
  67.1986993  38.7073833   5.8131673  67.9556993  38.7793833   5.3851673
  67.2616993  37.9343833   6.2121673  67.3196993  38.6043833   5.8081673
  49.7516993  40.0053833   9.7101673  49.7476993  40.5923833  10.3561673
  50.3456993  40.3173833   9.1531673  49.8386993  40.1383833   9.7231673
  62.0896993  50.3393833  10.2521673  62.0556993  50.7213833  11.0361673
  62.9436993  50.2973833  10.0811673  62.2106993  50.3893833  10.3431673
  52.8306993  52.0103833   6.8401673  52.1326993  51.5023833   6.9661673
  53.0906993  51.8053833   6.0321673  52.7656993  51.9053833   6.7391673
  60.5416993  53.5033833   7.7501673  61.3096993  53.4233833   7.3441673
  59.9586993  53.3823833   7.1121673  60.5686993  53.4733833   7.5961673
  54.1916993  50.8613833   9.4071673  55.0326993  50.9243833   9.1851673
  54.1546993  51.2583833  10.1831673  54.3106993  50.9293833   9.4891673
  56.1546993  46.3723833   4.1561673  56.3266993  46.1623833   4.9851673
  55.4996993  45.8383833   3.9401673  56.0836993  46.2623833   4.2471673
  62.3826993  40.2863833   7.6711673  62.2876993  40.6053833   8.4771673
  61.7896993  39.6473833   7.6331673  62.2806993  40.2383833   7.7851673
  56.9046993  46.3103833   6.7461673  56.9576993  47.1573833   6.9481673
  56.6196993  45.9403833   7.4831673  56.8706993  46.3803833   6.8841673
  63.0816993  47.0053833   5.8761673  62.5676993  46.5933833   6.4471673
  62.9556993  47.8493833   6.0571673  62.9876993  47.0693833   5.9871673
  49.7256993  50.6813833  12.9571673  50.4816993  51.0303833  13.2151673
  49.9026993  49.8283833  12.9001673  49.8636993  50.6063833  12.9871673
  66.1026993  40.4663833   8.8151673  66.8746993  40.2413833   9.1521673
  65.6276993  40.6833833   9.5151673  66.1466993  40.4653833   8.9681673
  52.2376993  53.9013833   2.5711673  51.5646993  53.4033833   2.3261673
  52.6406993  54.0863833   1.8201673  52.1976993  53.8553833   2.4241673
  51.7876993  40.8513833   4.8671673  52.6306993  41.0713833   4.8241673
  51.3986993  41.4243833   4.3361673  51.8546993  40.9683833   4.7821673
  68.5686993  51.9533833  10.2571673  67.8866993  52.2633833   9.8101673
  68.1996993  51.4953833  10.9021673  68.4126993  51.9313833  10.2861673
  49.9946993  48.8263833   2.8891673  49.3276993  49.3143833   3.1651673
  50.6746993  49.3713833   2.9181673  49.9966993  48.9783833   2.9341673
  57.6416993  42.5363833  12.9851673  57.1576993  43.1133833  13.4271673
  57.6136993  42.8313833  12.1641673  57.5656993  42.6653833  12.9291673
  68.7396993  43.2203833   7.5971673  68.9546993  42.4203833   7.3211673
  67.8896993  43.2803833   7.4081673  68.6456993  43.1113833   7.5281673
  54.4366993  48.6743833   4.6561673  54.9036993  48.9633833   5.3341673
  55.0086993  48.1963833   4.2021673  54.5906993  48.6463833   4.6891673
  62.8726993  40.6883833   2.3931673  63.2166993  40.8403833   3.1801673
  62.4196993  39.9503833   2.5061673  62.8566993  40.6013833   2.5261673
  51.0026993  46.3443833   3.2001673  51.4336993  46.2153833   2.4531673
  50.7976993  47.1923833   3.1741673  51.0356993  46.4503833   3.0861673
  66.4026993  52.3353833   8.3471673  65.7316993  52.8493833   8.5651673
  66.4656993  52.4353833   7.4831673  66.3126993  52.4263833   8.2521673
  53.2166993  43.3433833  11.3441673  52.6806993  42.8373833  11.8121673
  53.2366993  42.9533833  10.5641673  53.1396993  43.2103833  11.2981673
  53.8686993  44.5703833   3.0831673  53.0876993  44.5113833   2.7001673
  53.9406993  43.8183833   3.5201673  53.7636993  44.4513833   3.0911673
  54.2986993  44.3073833   6.5511673  54.3236993  43.6323833   6.0001673
  53.6526993  44.8033833   6.2391673  54.2076993  44.2803833   6.4241673
  64.1936993  42.0203833   4.9471673  63.5316993  42.3483833   5.4101673
  64.3806993  42.6543833   4.3781673  64.1236993  42.1623833   4.9311673
  58.3986993  53.0843833   5.9431673  58.1216993  52.4433833   5.4201673
  58.1906993  53.8103833   5.5051673  58.3276993  53.0973833   5.8011673
  60.8386993  37.9263833   8.3761673  60.9876993  37.1013833   8.1331673
  61.2176993  37.9813833   9.1601673  60.9166993  37.8123833   8.4561673
  52.0976993  45.6623833  12.1101673  52.0606993  46.1633833  11.3961673
  52.4286993  44.9103833  11.8151673  52.1406993  45.6243833  11.9611673
  63.7006993  47.8673833  10.3681673  64.1846993  48.5853833  10.4661673
  64.0946993  47.4403833   9.7171673  63.8306993  47.9103833  10.2861673
  57.9966993  50.7123833  11.5451673  58.3506993  50.5343833  12.3221673
  57.5606993  49.9833833  11.3461673  57.9846993  50.5783833  11.6311673
  58.9686993  41.4593833   4.1831673  59.4486993  42.1583833   4.3911673
  59.3416993  40.8123833   4.6341673  59.0946993  41.4673833   4.2801673
  62.1746993  51.5643833   4.2821673  61.5716993  51.2683833   3.7251673
  62.7196993  52.0163833   3.7731673  62.1656993  51.5873833   4.1241673
  62.1876993  48.4153833   3.6821673  61.3906993  48.6393833   3.9561673
  62.4456993  47.8213833   4.2671673  62.1076993  48.3603833   3.8091673
  65.4476993  46.4133833   8.5281673  65.5026993  46.5383833   7.6661673
  66.2006993  46.7333833   8.8301673  65.5666993  46.4783833   8.4451673
  61.6386993  51.7623833  12.8051673  61.8026993  52.0453833  13.6141673
  61.9016993  52.4233833  12.3001673  61.7016993  51.9023833  12.8501673
  66.4796993  36.7113833  11.5151673  65.8426993  36.3113833  11.0731673
  66.5056993  36.2803833  12.2731673  66.3896993  36.5893833  11.5611673
  61.1786993  46.2193833   8.1281673  61.0236993  46.8293833   8.7321673
  61.7126993  45.6613833   8.5341673  61.2346993  46.2273833   8.2771673
  64.7886993  48.9483833   4.6551673  64.3096993  49.2463833   3.9891673
  64.4326993  48.1723833   4.8331673  64.6656993  48.8773833   4.5831673
  58.7856993  46.6663833   3.2171673  57.9386993  46.4723833   3.2981673
  59.1096993  46.5013833   4.0101673  58.7076993  46.6133833   3.3461673
  52.6336993  46.3593833   5.5331673  53.3556993  46.8473833   5.4961673
  52.3636993  46.3293833   4.7041673  52.7006993  46.4273833   5.4051673
  55.8636993  41.5303833   2.2681673  56.7096993  41.3403833   2.3661673
  55.4936993  40.7533833   2.1301673  55.9336993  41.3873833   2.2621673
  65.7196993  45.8903833   5.7741673  65.7126993  45.1143833   6.1721673
  64.8786993  46.1243833   5.7671673  65.5946993  45.8103833   5.8321673
  52.0286993  47.4113833   9.8111673  51.6076993  46.8933833   9.2501673
  51.6766993  48.1973833   9.6681673  51.9146993  47.4513833   9.7071673
  66.9756993  45.9613833   3.2111673  66.6896993  46.3623833   3.9311673
  67.8356993  45.8993833   3.3381673  67.0606993  46.0113833   3.3361673
  64.6376993  39.8853833  11.7511673  64.1126993  40.3443833  12.2751673
  64.2766993  39.0903833  11.7451673  64.5066993  39.8353833  11.8271673
  50.1446993  38.7333833   3.6551673  50.1886993  39.0773833   2.8541673
  50.8996993  38.9703833   4.0221673  50.2626993  38.8193833   3.5911673
  68.1066993  51.5943833   3.7401673  68.3966993  51.8513833   2.9591673
  68.8016993  51.6903833   4.2591673  68.2526993  51.6463833   3.7011673
  63.1296993  43.4543833  11.8271673  63.2026993  43.5583833  12.6901673
  62.4956993  44.0123833  11.6061673  63.0466993  43.5523833  11.9221673
  65.3976993  43.7733833  10.1921673  65.7166993  44.5593833  10.3951673
  65.0276993  43.5033833  10.9351673  65.3906993  43.8493833  10.3321673
  68.0956993  44.3153833  12.9271673  68.0436993  43.9743833  12.1261673
  68.8326993  44.7823833  12.9051673  68.1966993  44.3343833  12.8051673
  67.6336993  47.9913833   9.1331673  68.2616993  47.4423833   8.8771673
  67.5726993  48.5563833   8.4711673  67.7176993  47.9943833   8.9971673
  56.7676993  49.2223833   6.4291673  56.4696993  49.8143833   6.9961673
  56.8226993  49.6643833   5.6801673  56.7316993  49.3753833   6.4021673
  54.7466993  48.1723833   9.8271673  53.9406993  47.8823833   9.9941673
  54.6576993  49.0403833   9.8331673  54.6146993  48.2573833   9.8521673
  64.1056993  38.3613833   8.8421673  64.8496993  38.8133833   8.7791673
  63.5396993  38.8313833   8.3731673  64.1326993  38.4983833   8.7641673
  59.2836993  45.6453833   5.9201673  59.7596993  46.0193833   6.5481673
  58.4606993  45.7793833   6.1791673  59.2326993  45.7203833   6.0511673
  55.9936993  41.2483833   8.6611673  56.1546993  40.5043833   9.0881673
  55.9486993  40.9993833   7.8261673  56.0106993  41.1013833   8.6011673
  65.3906993  36.3413833   6.5121673  65.1106993  37.1663833   6.4681673
  66.1066993  36.3943833   7.0081673  65.4556993  36.4713833   6.5791673
  57.7456993  37.0563833   8.5411673  58.4506993  37.3763833   8.1391673
  57.9866993  36.2493833   8.7681673  57.8846993  36.9843833   8.5151673
  56.7306993  51.2663833   4.5371673  56.1066993  51.8483833   4.3551673
  56.9786993  50.9803833   3.7511673  56.6746993  51.3103833   4.3941673
  61.0396993  47.9003833  11.5261673  61.7966993  48.1863833  11.2001673
  60.4926993  47.9523833  10.8481673  61.0706993  47.9503833  11.3771673
  64.9486993  50.4503833  10.0301673  65.2946993  50.7203833  10.7841673
  65.2426993  51.0323833   9.4501673  65.0436993  50.5763833  10.0561673
  54.2546993  42.1093833   4.6021673  54.6946993  42.0063833   3.8561673
  54.7996993  41.7963833   5.2071673  54.3996993  42.0483833   4.5811673
  62.2706993  41.2113833  10.1941673  61.6226993  41.6813833  10.5421673
  62.8356993  41.1223833  10.8531673  62.2586993  41.2673833  10.3431673
  61.9586993  42.7483833   6.4921673  62.2606993  43.1683833   7.1951673
  61.9946993  41.9083833   6.7241673  62.0086993  42.6863833   6.6301673
  59.3836993  52.9153833  10.4171673  59.8616993  52.3153833  10.0011673
  59.0326993  52.4723833  11.0821673  59.4026993  52.7613833  10.4541673
  57.8016993  37.0943833   4.6491673  56.9756993  36.9453833   4.8861673
  57.7616993  37.1293833   3.7781673  57.6736993  37.0773833   4.5551673
  59.4426993  48.1343833   9.4371673  58.6476993  48.0703833   9.7881673
  59.5136993  48.9813833   9.2421673  59.3356993  48.2493833   9.4601673
  50.3666993  37.4923833  10.6841673  50.2266993  38.2873833  10.3531673
  49.5806993  37.2493833  10.9731673  50.2296993  37.5743833  10.6781673
  55.2726993  54.3413833   4.7541673  55.2836993  54.4003833   5.6241673
  54.8476993  53.5943833   4.6041673  55.2116993  54.2393833   4.8601673
  59.9316993  50.7813833   8.5451673  60.6186993  50.6673833   9.0701673
  60.0656993  51.5723833   8.2011673  60.0526993  50.8813833   8.5721673
  68.1076993  43.3903833  10.3561673  67.2526993  43.2683833  10.4821673
  68.2606993  42.9953833   9.5931673  68.0036993  43.3133833  10.2621673
  62.6206993  44.0553833   8.9321673  62.3656993  43.3363833   9.3541673
  63.4416993  44.1713833   9.2021673  62.7046993  43.9663833   9.0341673
  52.0366993  53.8393833  10.1961673  51.3826993  53.2703833  10.2941673
  51.6616993  54.6123833  10.3471673  51.8846993  53.8693833  10.2331673
  60.5546993  45.2453833  12.1191673  60.8776993  45.9313833  11.6871673
  59.8506993  45.5683833  12.5211673  60.4976993  45.3943833  12.1141673
  63.6386993  53.6193833   3.0481673  63.1876993  54.2623833   3.4271673
  64.3466993  53.5403833   3.5531673  63.6766993  53.7023833   3.1791673
  60.3396993  48.7093833   5.9781673  59.6456993  49.1113833   6.3211673
  61.0166993  49.1423833   6.3171673  60.3366993  48.8323833   6.0791673
  65.7166993  51.3023833  12.5581673  66.4926993  50.9123833  12.6411673
  65.2476993  50.9663833  13.2131673  65.7616993  51.1953833  12.6671673
  53.4076993  42.2473833   8.3251673  53.7826993  42.8663833   7.8381673
  54.0816993  41.7733833   8.6101673  53.5626993  42.2693833   8.2951673
  51.1826993  40.6953833   7.6001673  51.2596993  40.5263833   6.7471673
  51.9286993  41.1013833   7.7971673  51.3036993  40.7303833   7.5031673
  53.7366993  38.1053833  10.0111673  53.6556993  37.2613833  10.2171673
  53.4226993  38.1493833   9.1981673  53.6786993  37.9873833   9.9211673
  65.8436993  43.4813833   7.3961673  65.8416993  42.6183833   7.5201673
  65.9106993  43.8053833   8.2031673  65.8536993  43.4013833   7.5331673
  50.5796993  45.9213833   7.8241673  50.8996993  46.1403833   7.0431673
  50.4796993  45.0563833   7.7691673  50.6116993  45.8263833   7.7011673
  61.7226993  38.2813833  11.1781673  61.8146993  38.9933833  11.6721673
  61.0856993  37.8363833  11.5751673  61.6416993  38.3203833  11.3101673
  64.3146993  38.9873833   4.8321673  65.1696993  39.0863833   4.9771673
  63.9456993  39.5403833   5.3971673  64.3866993  39.0843833   4.9371673
  55.3426993  45.2133833   9.2091673  54.9466993  45.9873833   9.2841673
  54.9366993  44.8403833   8.5331673  55.2246993  45.2723833   9.1201673
  64.6186993  44.2673833   3.3231673  65.2846993  44.8083833   3.4831673
  64.2736993  44.5783833   2.5841673  64.6656993  44.3933833   3.2381673
  55.7716993  38.1903833   6.6591673  54.9076993  38.2743833   6.7391673
  55.9916993  37.6763833   7.3281673  55.6766993  38.1273833   6.7701673
  67.7896993  36.8253833   7.9881673  67.7376993  36.7813833   8.8581673
  68.4766993  36.3223833   7.7981673  67.8836993  36.7453833   8.0881673
  59.8746993  38.9383833   5.0331673  59.1376993  38.4843833   5.1461673
  60.4456993  38.5363833   5.5561673  59.8496993  38.8113833   5.1271673
  62.6066993  49.7863833   6.8211673  62.8126993  50.0873833   7.6131673
  62.5456993  50.5083833   6.3361673  62.6276993  49.9373833   6.8661673
  62.1406993  54.0003833  11.0671673  61.3876993  53.9823833  10.6261673
  62.3086993  54.8523833  11.1511673  62.0546993  54.1233833  11.0141673
  57.3776993  43.2673833  10.2371673  57.0556993  42.6913833   9.6671673
  57.0186993  44.0223833   9.9911673  57.2776993  43.2933833  10.1171673
  67.4186993  48.4253833   6.2791673  67.3866993  47.5633833   6.1441673
  66.7256993  48.7273833   5.8451673  67.3116993  48.3423833   6.1951673
  55.8126993  53.6233833  10.4851673  55.8536993  53.7493833  11.3481673
  56.4636993  53.0633833  10.3291673  55.9146993  53.5593833  10.5901673
  65.5236993  51.6853833   5.0761673  66.0506993  51.6023833   4.3851673
  65.1326993  50.9073833   5.1301673  65.5436993  51.5583833   4.9821673
  52.9916993  38.2733833   7.3071673  52.6486993  37.5063833   7.0731673
  52.2966993  38.7973833   7.3711673  52.8386993  38.2373833   7.2821673
  62.0376993  37.1293833   4.2841673  62.7076993  37.6733833   4.4111673
  61.5346993  37.5533833   3.7111673  62.0626993  37.2723833   4.2181673
  53.4056993  52.0063833  11.8451673  54.0006993  52.4373833  12.3171673
  53.0416993  52.6303833  11.3561673  53.4396993  52.1623833  11.8421673
  61.3966993  42.9373833   1.7771673  61.9476993  42.3303833   2.0771673
  60.9716993  43.2003833   2.4921673  61.4156993  42.8863833   1.9261673
  51.3326993  49.9953833   8.7741673  50.7586993  50.4113833   9.2831673
  52.0656993  50.4603833   8.8691673  51.3566993  50.1253833   8.8631673
  66.6406993  46.1413833  11.4901673  67.2746993  45.9713833  12.0641673
  67.0576993  46.5443833  10.8381673  66.7956993  46.1763833  11.4791673
  67.2656993  40.7053833  12.2281673  67.0696993  41.3493833  12.7831673
  66.5436993  40.2153833  12.2201673  67.1306993  40.7283833  12.3091673
  67.1646993  41.6463833   5.1991673  66.3316993  41.8963833   5.1271673
  67.1086993  40.8063833   5.4281673  67.0336993  41.5593833   5.2221673
  56.4246993  38.6343833  10.3931673  56.6586993  38.0583833   9.7801673
  55.5826993  38.4533833  10.5341673  56.3346993  38.5223833  10.3231673
  64.0516993  46.2523833  12.8451673  64.9226993  46.2163833  12.8091673
  63.8326993  46.6723833  12.1131673  64.1486993  46.3083833  12.7321673
  53.8056993  52.0773833   4.0261673  53.7266993  51.2673833   3.7101673
  53.3616993  52.5643833   3.4541673  53.7286993  52.0293833   3.8951673
  51.3776993  54.3213833   7.6071673  51.8706993  54.2653833   8.3251673
  51.5656993  53.5883833   7.1721673  51.4786993  54.2043833   7.6491673
  60.8156993  18.3592753  75.7791313  60.5706993  18.8472753  75.0991313
  61.6786993  18.2862753  75.6791313  60.9066993  18.4202753  75.6641313
  60.6246993  25.2752753  80.4501313  60.1006993  25.8712753  80.8131313
  61.0216993  24.9072753  81.1341313  60.6056993  25.3092753  80.6051313
  50.4936993  29.4152753  75.9061313  50.0526993  29.5332753  76.6491313
  50.2106993  28.6402753  75.6211313  50.3866993  29.3182753  75.9741313
  66.7686993  32.7162753  73.4211313  67.4696993  32.1972753  73.4171313
  66.1816993  32.2712753  72.9521313  66.7856993  32.5732753  73.3511313
  50.2366993  23.2072753  72.4131313  49.4586993  23.3692753  72.0531313
  50.2756993  22.3362753  72.4351313  50.1276993  23.1022753  72.3631313
  53.3756993  28.4702753  71.0851313  52.9836993  28.0992753  70.3991313
  53.2956993  27.8722753  71.7141313  53.3056993  28.3272753  71.0761313
  63.2956993  26.3422753  77.1261313  63.3756993  26.3462753  76.2571313
  62.7116993  25.7102753  77.2751313  63.2206993  26.2492753  77.0201313
  53.0026993  30.1112753  74.9851313  53.6106993  29.9412753  75.5881313
  52.2516993  29.9712753  75.4061313  52.9816993  30.0652753  75.1361313
  57.2846993  19.4462753  74.9341313  57.2146993  20.1232753  74.3881313
  58.0256993  19.0582753  74.6851313  57.3836993  19.4892753  74.8161313
  51.8936993  33.2022753  71.0621313  52.3606993  33.2862753  70.3301313
  52.3486993  32.6242753  71.5311313  52.0296993  33.1292753  71.0231313
  51.8796993  26.6712753  76.3631313  51.4176993  26.2792753  75.7361313
  52.5796993  26.1582753  76.4551313  51.9146993  26.5382753  76.2841313
  53.8806993  24.7712753  76.3861313  54.6976993  24.5842753  76.6291313
  53.4036993  24.1572753  76.7821313  53.9306993  24.6532753  76.4811313
  58.0846993  30.7522753  78.9961313  58.4326993  29.9532753  79.0261313
  58.7496993  31.2562753  78.7411313  58.2346993  30.7082753  78.9631313
  58.1416993  30.2012753  75.2071313  58.4726993  29.5572753  75.6931313
  58.3816993  29.9902753  74.3961313  58.2256993  30.0752753  75.1591313
  54.4776993  19.8652753  75.6521313  54.1816993  20.3662753  75.0021313
  55.3446993  19.9432753  75.5951313  54.5616993  19.9512753  75.5481313
  57.4566993  19.0072753  77.8751313  57.5296993  19.8672753  78.0041313
  57.4186993  18.9322753  77.0071313  57.4616993  19.1232753  77.7661313
  62.1296993  21.9332753  70.1741313  61.6796993  22.6142753  70.4811313
  62.2436993  21.4292753  70.8771313  62.0806993  21.9592753  70.3231313
  50.3356993  24.4322753  79.3761313  50.0796993  25.2632753  79.3011313
  49.6716993  24.0492753  79.7931313  50.1996993  24.4982753  79.4271313
  50.2456993  34.1422753  77.2761313  49.6536993  34.7002753  76.9631313
  50.6716993  33.8732753  76.5641313  50.2216993  34.1842753  77.1251313
  56.0856993  31.9862753  74.7561313  55.5066993  31.7112753  75.3481313
  56.7096993  31.3772753  74.7811313  56.0926993  31.8562753  74.8471313
  62.2286993  34.2742753  72.2781313  62.9556993  34.7462753  72.3801313
  62.4576993  33.4802753  72.5581313  62.3706993  34.2272753  72.3351313
  60.3966993  34.6662753  74.2681313  60.6106993  35.1932753  74.9301313
  61.1636993  34.4922753  73.8891313  60.5416993  34.7182753  74.3101313
  53.3646993  19.2492753  79.8671313  52.8436993  18.6212753  79.5591313
  53.9556993  18.8122753  80.3381313  53.3756993  19.0912753  79.8911313
  51.7906993  32.8122753  75.2071313  52.4466993  32.2372753  75.2221313
  52.1796993  33.5612753  74.9861313  51.9456993  32.8372753  75.1771313
  67.5236993  21.9062753  76.4691313  67.1776993  22.5842753  76.8951313
  66.8876993  21.3082753  76.4851313  67.3786993  21.9182753  76.5341313
  52.6086993  31.2992753  78.7071313  53.0316993  30.9432753  78.0331313
  52.9326993  30.8772753  79.3991313  52.7186993  31.1842753  78.7101313
  55.8396993  34.1512753  78.0031313  56.6836993  34.2552753  77.8081313
  55.5426993  34.9692753  78.0711313  55.9206993  34.2872753  77.9841313
  59.6466993  23.5482753  76.0901313  59.9336993  23.3162753  75.3001313
  60.3786993  23.6272753  76.5591313  59.7966993  23.5252753  76.0431313
  60.3686993  23.8872753  71.2111313  60.6496993  24.6752753  71.4601313
  59.5926993  24.0522753  70.8481313  60.2956993  24.0282753  71.1941313
  64.4096993  35.8612753  72.6781313  65.0746993  35.7132753  72.1331313
  64.7696993  35.7782753  73.4681313  64.5616993  35.8272753  72.7141313
  59.2276993  32.0582753  71.0271313  59.0466993  32.6032753  71.6841313
  59.9936993  32.3482753  70.7261313  59.3136993  32.1822753  71.0801313
  62.7346993  19.9542753  72.0811313  63.2746993  19.2722753  72.1571313
  62.7966993  20.3522753  72.8551313  62.8236993  19.9122753  72.2071313
  50.6886993  21.1222753  74.6501313  50.5746993  20.2582753  74.6811313
  50.2136993  21.4162753  75.3201313  50.6016993  21.0382753  74.7531313
  59.9926993  22.3302753  73.3951313  59.4846993  21.6682753  73.1411313
  60.0446993  22.8342753  72.6851313  59.9256993  22.3072753  73.2531313
  59.9926993  19.2712753  73.2861313  59.5376993  18.8692753  72.6601313
  60.7656993  19.4262753  72.9111313  60.0396993  19.2352753  73.1381313
  66.8186993  35.6282753  76.6761313  66.3636993  36.3452753  76.8771313
  66.2046993  35.0572753  76.4341313  66.6606993  35.6502753  76.6701313
  58.5906993  21.6382753  77.8081313  58.6646993  22.2062753  77.1501313
  58.7116993  22.1302753  78.5181313  58.6186993  21.7952753  77.8161313
  63.8156993  31.4732753  76.2201313  64.5166993  30.9912753  76.4091313
  63.1556993  30.9042753  76.2651313  63.8216993  31.3182753  76.2541313
  53.1986993  17.4612753  76.1561313  53.7346993  18.1492753  76.1461313
  53.2016993  17.1872753  75.3281313  53.2776993  17.5222753  76.0321313
  56.1546993  27.8942753  80.1811313  56.3266993  27.6842753  81.0101313
  55.4996993  27.3602753  79.9651313  56.0836993  27.7842753  80.2721313
  63.6386993  17.7522753  76.5321313  63.6876993  17.4342753  77.3431313
  63.9616993  17.1082753  76.0391313  63.6936993  17.6102753  76.5791313
  53.6466993  21.2712753  77.8101313  53.9186993  20.8412753  77.1021313
  53.4706993  20.6352753  78.3811313  53.6606993  21.1142753  77.7901313
  66.3346993  28.9662753  72.0281313  66.4536993  28.6792753  72.8431313
  67.1416993  28.9872753  71.6981313  66.4706993  28.9272753  72.1001313
  53.4706993  28.6982753  77.3591313  54.3216993  28.6182753  77.1861313
  53.1136993  28.0162753  76.9471313  53.5436993  28.5852753  77.2721313
  52.2376993  35.4232753  78.5961313  51.5646993  34.9252753  78.3511313
  52.6406993  35.6082753  77.8451313  52.1976993  35.3772753  78.4491313
  51.7876993  22.3732753  80.8921313  52.6306993  22.5932753  80.8491313
  51.3986993  22.9462753  80.3611313  51.8546993  22.4902753  80.8071313
  64.2296993  25.5032753  71.6131313  64.0096993  26.2342753  71.1911313
  63.7816993  25.5542753  72.3601313  64.1306993  25.6182753  71.6611313
  55.8386993  28.7052753  75.5941313  56.5516993  29.2002753  75.6841313
  56.0606993  28.1382753  74.9681313  55.9766993  28.6942753  75.5151313
  68.4166993  20.3642753  71.0661313  67.7546993  19.7962753  71.0891313
  68.2236993  20.8762753  70.3861313  68.2906993  20.3562753  70.9691313
  49.9946993  30.3482753  78.9141313  49.3276993  30.8362753  79.1901313
  50.6746993  30.8932753  78.9431313  49.9966993  30.5002753  78.9591313
  50.0606993  27.0322753  74.0171313  49.8756993  26.1932753  74.1691313
  50.7196993  26.9962753  73.4471313  50.1306993  26.9032753  73.9551313
  66.4186993  19.9222753  73.3451313  67.1646993  19.5152753  73.5441313
  66.6816993  20.6372753  72.9201313  66.5676993  19.9682753  73.3121313
  60.3616993  32.4082753  77.9211313  59.8386993  33.0422753  77.6281313
  60.6716993  32.0442753  77.1921313  60.3296993  32.4482753  77.7701313
  50.2326993  31.1962753  73.5921313  50.7846993  31.7652753  73.9561313
  50.0006993  30.6812753  74.2571313  50.2796993  31.2042753  73.7441313
  54.4366993  30.1962753  80.6811313  54.9036993  30.4852753  81.3591313
  55.0086993  29.7182753  80.2271313  54.5906993  30.1682753  80.7141313
  62.8726993  22.2102753  78.4181313  63.2166993  22.3622753  79.2051313
  62.4196993  21.4722753  78.5311313  62.8566993  22.1232753  78.5511313
  50.0626993  29.6452753  71.2201313  50.8186993  29.2132753  71.2781313
  50.0776993  30.1772753  71.9111313  50.1766993  29.6602753  71.3311313
  51.0026993  27.8662753  79.2251313  51.4336993  27.7372753  78.4781313
  50.7976993  28.7142753  79.1991313  51.0356993  27.9722753  79.1111313
  57.3486993  21.4302753  72.8751313  57.3466993  21.3132753  72.0101313
  57.1676993  22.2782753  72.9671313  57.3216993  21.5382753  72.7611313
  55.0866993  31.3822753  77.5071313  55.2126993  32.2252753  77.6941313
  55.7546993  30.9832753  77.9031313  55.2046993  31.4482753  77.5931313
  53.7016993  24.2622753  72.5091313  53.5736993  23.8142753  73.2471313
  53.1196993  23.9202753  71.9571313  53.5966993  24.1452753  72.5371313
  53.8686993  26.0922753  79.1081313  53.0876993  26.0332753  78.7251313
  53.9406993  25.3402753  79.5451313  53.7636993  25.9732753  79.1161313
  64.1936993  23.5422753  80.9721313  63.5316993  23.8702753  81.4351313
  64.3806993  24.1762753  80.4031313  64.1236993  23.6842753  80.9561313
  62.3866993  21.5112753  74.4831313  62.8766993  22.2282753  74.4061313
  61.5966993  21.7722753  74.2201313  62.3426993  21.6552753  74.4331313
  58.9686993  22.9812753  80.2081313  59.4486993  23.6802753  80.4161313
  59.3416993  22.3342753  80.6591313  59.0946993  22.9892753  80.3051313
  61.1576993  26.1502753  72.4821313  61.1496993  26.8722753  71.9921313
  60.5186993  26.2852753  73.0591313  61.0626993  26.2772753  72.4951313
  66.1296993  30.0202753  76.4631313  66.4856993  29.6702753  77.1781313
  66.1216993  29.3592753  75.8931313  66.1816993  29.8702753  76.4841313
  62.1746993  33.0862753  80.3071313  61.5716993  32.7902753  79.7501313
  62.7196993  33.5382753  79.7981313  62.1656993  33.1092753  80.1491313
  62.1876993  29.9372753  79.7071313  61.3906993  30.1612753  79.9811313
  62.4456993  29.3432753  80.2921313  62.1076993  29.8822753  79.8341313
  56.0796993  34.7492753  74.1551313  55.9326993  33.9732753  74.5261313
  56.7686993  34.6022753  73.6401313  56.1596993  34.6122753  74.1341313
  55.7506993  18.4922753  72.1431313  55.8476993  18.3852753  73.0041313
  55.0426993  18.9982753  72.0781313  55.6606993  18.5512753  72.2611313
  58.3716993  34.2652753  72.5571313  58.9936993  34.4282753  73.1471313
  58.4076993  34.9562753  72.0251313  58.4686993  34.3912753  72.5661313
  52.8726993  26.7992753  73.3861313  53.1966993  26.0202753  73.1641313
  53.5186993  27.1672753  73.8411313  53.0156993  26.7382753  73.4201313
  49.8696993  18.4602753  74.3541313  49.9986993  17.7522753  73.8621313
  49.5026993  18.1422753  75.0791313  49.8346993  18.3082753  74.3891313
  59.5626993  26.1412753  74.8111313  59.6216993  26.7912753  75.3901313
  59.3736993  25.4452753  75.3021313  59.5436993  26.1342753  74.9691313
  64.7886993  30.4702753  80.6801313  64.3096993  30.7682753  80.0141313
  64.4326993  29.6942753  80.8581313  64.6656993  30.3992753  80.6081313
  54.0586993  20.6582753  71.3231313  53.5476993  20.7112753  70.6171313
  54.8426993  20.8982753  71.0271313  54.0986993  20.7012753  71.1751313
  58.7856993  28.1882753  79.2421313  57.9386993  27.9942753  79.3231313
  59.1096993  28.0232753  80.0351313  58.7076993  28.1352753  79.3711313
  55.5376993  34.9182753  70.1281313  55.9766993  34.2212753  70.4161313
  55.7446993  35.5422753  70.7011313  55.6336993  34.9072753  70.2551313
  52.6336993  27.8812753  81.5581313  53.3556993  28.3692753  81.5211313
  52.3636993  27.8512753  80.7291313  52.7006993  27.9492753  81.4301313
  55.8636993  23.0522753  78.2931313  56.7096993  22.8622753  78.3911313
  55.4936993  22.2752753  78.1551313  55.9336993  22.9092753  78.2871313
  68.4806993  34.6362753  72.6201313  69.1746993  34.1692753  72.3721313
  67.9416993  34.0382753  72.9571313  68.5036993  34.4782753  72.6331313
  50.6846993  24.3902753  74.9481313  51.1736993  24.0982753  75.6091313
  50.8136993  23.7972753  74.3211313  50.7756993  24.2592753  74.9531313
  55.2096993  25.8242753  70.4341313  54.5996993  25.4192753  70.9081313
  54.8236993  25.9422753  69.6611313  55.0626993  25.7812753  70.3901313
  66.9756993  27.4832753  79.2361313  66.6896993  27.8842753  79.9561313
  67.8356993  27.4212753  79.3631313  67.0606993  27.5332753  79.3611313
  56.6646993  24.2852753  73.1441313  56.9366993  25.1112753  73.2111313
  55.8016993  24.3602753  73.0481313  56.5776993  24.4182753  73.1391313
  50.1446993  20.2552753  79.6801313  50.1886993  20.5992753  78.8791313
  50.8996993  20.4922753  80.0471313  50.2626993  20.3412753  79.6161313
  68.1066993  33.1162753  79.7651313  68.3966993  33.3732753  78.9841313
  68.8016993  33.2122753  80.2841313  68.2526993  33.1682753  79.7261313
  64.7116993  31.7192753  71.7471313  65.0456993  30.9132753  71.7821313
  63.9566993  31.6472753  72.1771313  64.6496993  31.5892753  71.8161313
  65.1936993  23.5532753  77.4061313  64.4486993  23.2302753  77.7241313
  65.1956993  24.3792753  77.6861313  65.0836993  23.6272753  77.4941313
  62.0856993  29.5942753  71.1501313  62.7696993  29.0802753  70.9811313
  61.6686993  29.6402753  70.3851313  62.1246993  29.5252753  71.0121313
  58.5476993  34.5602753  77.1731313  59.0936993  35.2392753  77.2271313
  58.1976993  34.6422753  76.3781313  58.5766993  34.6732753  77.0631313
  56.7306993  32.7882753  80.5621313  56.1066993  33.3702753  80.3801313
  56.9786993  32.5022753  79.7761313  56.6746993  32.8322753  80.4191313
  66.8116993  24.1182753  71.3941313  67.1896993  24.7952753  70.9941313
  65.9696993  24.3422753  71.4251313  66.7426993  24.2512753  71.3391313
  58.3246993  27.5642753  70.4771313  57.5196993  27.3872753  70.1921313
  58.2916993  28.4152753  70.6691313  58.2006993  27.6632753  70.4641313
  54.2546993  23.6312753  80.6271313  54.6946993  23.5282753  79.8811313
  54.7996993  23.3182753  81.2321313  54.3996993  23.5702753  80.6061313
  64.5066993  23.7172753  74.7691313  64.7136993  23.5162753  75.5931313
  65.2626993  23.9852753  74.4271313  64.6486993  23.7272753  74.8401313
  57.8016993  18.6162753  80.6741313  56.9756993  18.4672753  80.9111313
  57.7616993  18.6512753  79.8031313  57.6736993  18.5992753  80.5801313
  65.5286993  19.8002753  76.2431313  64.8146993  19.3292753  76.4141313
  65.3666993  20.1412753  75.4571313  65.3996993  19.7812753  76.1521313
  65.9716993  27.7442753  74.6231313  66.4476993  27.0152753  74.5751313
  65.1506993  27.4582753  74.5471313  65.9206993  27.5942753  74.6041313
  53.4306993  21.7582753  73.9341313  53.5566993  21.4292753  73.1361313
  52.6186993  21.5092753  74.1331313  53.3296993  21.6732753  73.8461313
  62.1876993  28.9112753  76.9781313  62.2636993  29.2522753  77.7771313
  62.3566993  28.0642753  77.0991313  62.2236993  28.8362753  77.1141313
  59.7096993  28.1852753  76.5431313  59.4116993  27.8702753  77.3001313
  60.4046993  28.6582753  76.7781313  59.7686993  28.2082753  76.6901313
  63.6386993  35.1412753  79.0731313  63.1876993  35.7842753  79.4521313
  64.3466993  35.0622753  79.5781313  63.6766993  35.2242753  79.2041313
  66.7416993  24.8572753  74.0651313  66.8446993  24.7992753  73.2011313
  67.4826993  24.5252753  74.3831313  66.8666993  24.8002753  73.9841313
  60.6616993  31.8222753  75.1721313  60.4566993  32.6552753  75.0131313
  59.8866993  31.4402753  75.2941313  60.5166993  31.8892753  75.1671313
  52.0356993  23.3792753  70.4671313  51.3636993  23.3932753  71.0231313
  52.1306993  22.5312753  70.2831313  51.9506993  23.2562753  70.5221313
  60.7166993  19.9932753  78.0571313  60.0166993  20.5112753  78.0011313
  60.7546993  19.6132753  77.2731313  60.6186993  20.0142753  77.9331313
  56.0236993  32.0842753  71.5811313  56.4646993  32.1642753  72.3291313
  55.2186993  31.8682753  71.8391313  55.9696993  32.0642753  71.7301313
  64.3146993  20.5092753  80.8571313  65.1696993  20.6082753  81.0021313
  63.9456993  21.0622753  81.4221313  64.3866993  20.6062753  80.9621313
  64.6186993  25.7892753  79.3481313  65.2846993  26.3302753  79.5081313
  64.2736993  26.1002753  78.6091313  64.6656993  25.9152753  79.2631313
  64.9316993  33.8552753  75.1551313  64.7576993  33.2012753  75.7051313
  65.6446993  33.5842753  74.7321313  65.0116993  33.7182753  75.1741313
  53.3526993  31.1542753  72.1821313  53.1086993  30.8472753  72.9621313
  53.3196993  30.4512753  71.6661313  53.3116993  31.0052753  72.2211313
  56.1716993  29.3992753  70.9251313  55.3536993  29.1312753  71.0651313
  56.1436993  30.2512753  71.1101313  56.0466993  29.4862753  70.9731313
  59.8746993  20.4602753  81.0581313  59.1376993  20.0062753  81.1711313
  60.4456993  20.0582753  81.5811313  59.8496993  20.3332753  81.1521313
  58.1736993  18.0412753  70.8891313  58.2516993  18.2882753  70.0561313
  57.4306993  18.4182753  71.1471313  58.0756993  18.1332753  70.8041313
  65.5236993  33.2072753  81.1011313  66.0506993  33.1242753  80.4101313
  65.1326993  32.4292753  81.1551313  65.5436993  33.0802753  81.0071313
  62.0376993  18.6512753  80.3091313  62.7076993  19.1952753  80.4361313
  61.5346993  19.0752753  79.7361313  62.0626993  18.7942753  80.2431313
  61.3966993  24.4592753  77.8021313  61.9476993  23.8522753  78.1021313
  60.9716993  24.7222753  78.5171313  61.4156993  24.4082753  77.9511313
  51.6446993  23.1092753  77.2881313  51.2766993  23.4112753  78.0191313
  52.1786993  22.4802753  77.5721313  51.6686993  23.0612753  77.4381313
  63.3666993  26.2902753  74.3641313  63.4346993  25.4402753  74.5451313
  62.5436993  26.3762753  74.0861313  63.2546993  26.1772753  74.3501313
  53.1186993  34.7842753  73.5741313  52.9736993  34.9402753  72.7281313
  53.9846993  34.8632753  73.6521313  53.2256993  34.8192753  73.4611313
  57.2856993  27.1812753  73.3021313  57.3856993  27.3202753  72.4471313
  58.1036993  27.1212753  73.5981313  57.4206993  27.1922753  73.2191313
  66.4456993  35.2452753  70.7821313  67.0826993  35.1112753  71.3631313
  66.1046993  34.4512753  70.6651313  66.4896993  35.1082753  70.8501313
  62.5206993  31.5102753  73.1041313  62.2696993  31.3822753  73.9301313
  62.2036993  30.8152753  72.6831313  62.4366993  31.3892753  73.1641313
  67.1646993  23.1682753  81.2241313  66.3316993  23.4182753  81.1521313
  67.1086993  22.3282753  81.4531313  67.0336993  23.0812753  81.2471313
  53.8056993  33.5992753  80.0511313  53.7266993  32.7892753  79.7351313
  53.3616993  34.0862753  79.4791313  53.7286993  33.5512753  79.9201313
  59.4066993  29.7182753  72.5341313  60.1236993  29.3712753  72.1781313
  59.3726993  30.5182753  72.1861313  59.5076993  29.7852753  72.4301313
  60.8156993  18.3592753  56.7728903  60.5706993  18.8472753  56.0928903
  61.6786993  18.2862753  56.6728903  60.9066993  18.4202753  56.6578903
  60.6246993  25.2752753  61.4438903  60.1006993  25.8712753  61.8068903
  61.0216993  24.9072753  62.1278903  60.6056993  25.3092753  61.5988903
  50.4936993  29.4152753  56.8998903  50.0526993  29.5332753  57.6428903
  50.2106993  28.6402753  56.6148903  50.3866993  29.3182753  56.9678903
  66.7686993  32.7162753  54.4148903  67.4696993  32.1972753  54.4108903
  66.1816993  32.2712753  53.9458903  66.7856993  32.5732753  54.3448903
  50.2366993  23.2072753  53.4068903  49.4586993  23.3692753  53.0468903
  50.2756993  22.3362753  53.4288903  50.1276993  23.1022753  53.3568903
  53.3756993  28.4702753  52.0788903  52.9836993  28.0992753  51.3928903
  53.2956993  27.8722753  52.7078903  53.3056993  28.3272753  52.0698903
  63.2956993  26.3422753  58.1198903  63.3756993  26.3462753  57.2508903
  62.7116993  25.7102753  58.2688903  63.2206993  26.2492753  58.0138903
  57.2846993  19.4462753  55.9278903  57.2146993  20.1232753  55.3818903
  58.0256993  19.0582753  55.6788903  57.3836993  19.4892753  55.8098903
  50.4336993  32.1502753  63.1548903  50.5626993  31.8702753  63.9708903
  49.8236993  31.6092753  62.8458903  50.3626993  32.0292753  63.2298903
  57.0076993  29.6752753  68.2218903  56.7716993  29.6722753  69.0618903
  56.2596993  29.5272753  67.7978903  56.8616993  29.6522753  68.2828903
  51.8796993  26.6712753  57.3568903  51.4176993  26.2792753  56.7298903
  52.5796993  26.1582753  57.4488903  51.9146993  26.5382753  57.2778903
  56.3876993  22.2812753  62.7038903  57.0656993  22.2992753  62.1548903
  56.3426993  21.4452753  62.9488903  56.4806993  22.1602753  62.6588903
  56.9896993  32.8672753  65.4848903  57.1276993  33.6272753  65.0778903
  57.7806993  32.5022753  65.5118903  57.1266993  32.9262753  65.4288903
  53.8806993  24.7712753  57.3798903  54.6976993  24.5842753  57.6228903
  53.4036993  24.1572753  57.7758903  53.9306993  24.6532753  57.4748903
  58.0846993  30.7522753  59.9898903  58.4326993  29.9532753  60.0198903
  58.7496993  31.2562753  59.7348903  58.2346993  30.7082753  59.9568903
  58.1416993  30.2012753  56.2008903  58.4726993  29.5572753  56.6868903
  58.3816993  29.9902753  55.3898903  58.2256993  30.0752753  56.1528903
  60.1096993  24.3322753  67.5398903  59.2616993  24.2332753  67.3618903
  60.1386993  25.0772753  67.9938903  59.9886993  24.4282753  67.5808903
  54.4776993  19.8652753  56.6458903  54.1816993  20.3662753  55.9958903
  55.3446993  19.9432753  56.5888903  54.5616993  19.9512753  56.5418903
  64.6676993  17.2922753  66.6538903  64.5096993  18.0612753  66.2718903
  63.8956993  17.0722753  66.9978903  64.5296993  17.3732753  66.6488903
  57.4566993  19.0072753  58.8688903  57.5296993  19.8672753  58.9978903
  57.4186993  18.9322753  58.0008903  57.4616993  19.1232753  58.7598903
  62.1296993  21.9332753  51.1678903  61.6796993  22.6142753  51.4748903
  62.2436993  21.4292753  51.8708903  62.0806993  21.9592753  51.3168903
  50.3356993  24.4322753  60.3698903  50.0796993  25.2632753  60.2948903
  49.6716993  24.0492753  60.7868903  50.1996993  24.4982753  60.4208903
  62.2286993  34.2742753  53.2718903  62.9556993  34.7462753  53.3738903
  62.4576993  33.4802753  53.5518903  62.3706993  34.2272753  53.3288903
  60.3966993  34.6662753  55.2618903  60.6106993  35.1932753  55.9238903
  61.1636993  34.4922753  54.8828903  60.5416993  34.7182753  55.3038903
  53.3646993  19.2492753  60.8608903  52.8436993  18.6212753  60.5528903
  53.9556993  18.8122753  61.3318903  53.3756993  19.0912753  60.8848903
  56.6706993  21.3822753  70.1588903  56.7876993  20.9282753  69.4228903
  56.9586993  22.1802753  69.9558903  56.7306993  21.4332753  70.0198903
  67.5236993  21.9062753  57.4628903  67.1776993  22.5842753  57.8888903
  66.8876993  21.3082753  57.4788903  67.3786993  21.9182753  57.5278903
  62.8356993  34.6762753  63.5668903  63.5796993  35.1322753  63.5568903
  62.7146993  34.4622753  62.7298903  62.9276993  34.7122753  63.4418903
  52.4036993  20.9792753  69.1428903  51.6256993  20.5892753  69.0708903
  52.8946993  20.5672753  68.5518903  52.3606993  20.8602753  69.0448903
  52.6086993  31.2992753  59.7008903  53.0316993  30.9432753  59.0268903
  52.9326993  30.8772753  60.3928903  52.7186993  31.1842753  59.7038903
  59.0526993  18.6222753  68.3108903  59.2306993  17.8132753  68.0358903
  58.9096993  19.0632753  67.5718903  59.0576993  18.5682753  68.1608903
  59.6466993  23.5482753  57.0838903  59.9336993  23.3162753  56.2938903
  60.3786993  23.6272753  57.5528903  59.7966993  23.5252753  57.0368903
  60.3686993  23.8872753  52.2048903  60.6496993  24.6752753  52.4538903
  59.5926993  24.0522753  51.8418903  60.2956993  24.0282753  52.1878903
  64.4096993  35.8612753  53.6718903  65.0746993  35.7132753  53.1268903
  64.7696993  35.7782753  54.4618903  64.5616993  35.8272753  53.7078903
  54.8376993  35.3702753  64.7368903  55.1296993  35.3032753  65.5568903
  54.2116993  34.7652753  64.6918903  54.7886993  35.2712753  64.8518903
  67.1986993  20.2292753  62.8318903  67.9556993  20.3012753  62.4038903
  67.2616993  19.4562753  63.2308903  67.3196993  20.1262753  62.8268903
  49.7516993  21.5272753  66.7288903  49.7476993  22.1142753  67.3748903
  50.3456993  21.8392753  66.1718903  49.8386993  21.6602753  66.7418903
  62.0896993  31.8612753  67.2708903  62.0556993  32.2432753  68.0548903
  62.9436993  31.8192753  67.0998903  62.2106993  31.9112753  67.3618903
  59.2276993  32.0582753  52.0208903  59.0466993  32.6032753  52.6778903
  59.9936993  32.3482753  51.7198903  59.3136993  32.1822753  52.0738903
  62.7346993  19.9542753  53.0748903  63.2746993  19.2722753  53.1508903
  62.7966993  20.3522753  53.8488903  62.8236993  19.9122753  53.2008903
  50.6886993  21.1222753  55.6438903  50.5746993  20.2582753  55.6748903
  50.2136993  21.4162753  56.3138903  50.6016993  21.0382753  55.7468903
  52.8306993  33.5322753  63.8588903  52.1326993  33.0242753  63.9848903
  53.0906993  33.3272753  63.0508903  52.7656993  33.4272753  63.7578903
  59.9926993  22.3302753  54.3888903  59.4846993  21.6682753  54.1348903
  60.0446993  22.8342753  53.6788903  59.9256993  22.3072753  54.2468903
  60.5416993  35.0252753  64.7688903  61.3096993  34.9452753  64.3628903
  59.9586993  34.9042753  64.1308903  60.5686993  34.9952753  64.6148903
  59.9926993  19.2712753  54.2798903  59.5376993  18.8692753  53.6538903
  60.7656993  19.4262753  53.9048903  60.0396993  19.2352753  54.1318903
  66.8186993  35.6282753  57.6698903  66.3636993  36.3452753  57.8708903
  66.2046993  35.0572753  57.4278903  66.6606993  35.6502753  57.6638903
  58.5906993  21.6382753  58.8018903  58.6646993  22.2062753  58.1438903
  58.7116993  22.1302753  59.5118903  58.6186993  21.7952753  58.8098903
  63.8156993  31.4732753  57.2138903  64.5166993  30.9912753  57.4028903
  63.1556993  30.9042753  57.2588903  63.8216993  31.3182753  57.2478903
  54.1916993  32.3832753  66.4258903  55.0326993  32.4462753  66.2038903
  54.1546993  32.7802753  67.2018903  54.3106993  32.4512753  66.5078903
  53.1986993  17.4612753  57.1498903  53.7346993  18.1492753  57.1398903
  53.2016993  17.1872753  56.3218903  53.2776993  17.5222753  57.0258903
  56.1546993  27.8942753  61.1748903  56.3266993  27.6842753  62.0038903
  55.4996993  27.3602753  60.9588903  56.0836993  27.7842753  61.2658903
  62.3826993  21.8082753  64.6898903  62.2876993  22.1272753  65.4958903
  61.7896993  21.1692753  64.6518903  62.2806993  21.7602753  64.8038903
  56.9046993  27.8322753  63.7648903  56.9576993  28.6792753  63.9668903
  56.6196993  27.4622753  64.5018903  56.8706993  27.9022753  63.9028903
  63.0816993  28.5272753  62.8948903  62.5676993  28.1152753  63.4658903
  62.9556993  29.3712753  63.0758903  62.9876993  28.5912753  63.0058903
  63.6386993  17.7522753  57.5258903  63.6876993  17.4342753  58.3368903
  63.9616993  17.1082753  57.0328903  63.6936993  17.6102753  57.5728903
  49.7256993  32.2032753  69.9758903  50.4816993  32.5522753  70.2338903
  49.9026993  31.3502753  69.9188903  49.8636993  32.1282753  70.0058903
  66.1026993  21.9882753  65.8338903  66.8746993  21.7632753  66.1708903
  65.6276993  22.2052753  66.5338903  66.1466993  21.9872753  65.9868903
  53.6466993  21.2712753  58.8038903  53.9186993  20.8412753  58.0958903
  53.4706993  20.6352753  59.3748903  53.6606993  21.1142753  58.7838903
  66.3346993  28.9662753  53.0218903  66.4536993  28.6792753  53.8368903
  67.1416993  28.9872753  52.6918903  66.4706993  28.9272753  53.0938903
  53.4706993  28.6982753  58.3528903  54.3216993  28.6182753  58.1798903
  53.1136993  28.0162753  57.9408903  53.5436993  28.5852753  58.2658903
  51.7876993  22.3732753  61.8858903  52.6306993  22.5932753  61.8428903
  51.3986993  22.9462753  61.3548903  51.8546993  22.4902753  61.8008903
  68.5686993  33.4752753  67.2758903  67.8866993  33.7852753  66.8288903
  68.1996993  33.0172753  67.9208903  68.4126993  33.4532753  67.3048903
  64.2296993  25.5032753  52.6068903  64.0096993  26.2342753  52.1848903
  63.7816993  25.5542753  53.3538903  64.1306993  25.6182753  52.6548903
  55.8386993  28.7052753  56.5878903  56.5516993  29.2002753  56.6778903
  56.0606993  28.1382753  55.9618903  55.9766993  28.6942753  56.5088903
  68.4166993  20.3642753  52.0598903  67.7546993  19.7962753  52.0828903
  68.2236993  20.8762753  51.3798903  68.2906993  20.3562753  51.9628903
  49.9946993  30.3482753  59.9078903  49.3276993  30.8362753  60.1838903
  50.6746993  30.8932753  59.9368903  49.9966993  30.5002753  59.9528903
  57.6416993  24.0582753  70.0038903  57.1576993  24.6352753  70.4458903
  57.6136993  24.3532753  69.1828903  57.5656993  24.1872753  69.9478903
  68.7396993  24.7422753  64.6158903  68.9546993  23.9422753  64.3398903
  67.8896993  24.8022753  64.4268903  68.6456993  24.6332753  64.5468903
  50.0606993  27.0322753  55.0108903  49.8756993  26.1932753  55.1628903
  50.7196993  26.9962753  54.4408903  50.1306993  26.9032753  54.9488903
  66.4186993  19.9222753  54.3388903  67.1646993  19.5152753  54.5378903
  66.6816993  20.6372753  53.9138903  66.5676993  19.9682753  54.3058903
  60.3616993  32.4082753  58.9148903  59.8386993  33.0422753  58.6218903
  60.6716993  32.0442753  58.1858903  60.3296993  32.4482753  58.7638903
  54.4366993  30.1962753  61.6748903  54.9036993  30.4852753  62.3528903
  55.0086993  29.7182753  61.2208903  54.5906993  30.1682753  61.7078903
  62.8726993  22.2102753  59.4118903  63.2166993  22.3622753  60.1988903
  62.4196993  21.4722753  59.5248903  62.8566993  22.1232753  59.5448903
  50.0626993  29.6452753  52.2138903  50.8186993  29.2132753  52.2718903
  50.0776993  30.1772753  52.9048903  50.1766993  29.6602753  52.3248903
  51.0026993  27.8662753  60.2188903  51.4336993  27.7372753  59.4718903
  50.7976993  28.7142753  60.1928903  51.0356993  27.9722753  60.1048903
  57.3486993  21.4302753  53.8688903  57.3466993  21.3132753  53.0038903
  57.1676993  22.2782753  53.9608903  57.3216993  21.5382753  53.7548903
  66.4026993  33.8572753  65.3658903  65.7316993  34.3712753  65.5838903
  66.4656993  33.9572753  64.5018903  66.3126993  33.9482753  65.2708903
  55.0866993  31.3822753  58.5008903  55.2126993  32.2252753  58.6878903
  55.7546993  30.9832753  58.8968903  55.2046993  31.4482753  58.5868903
  53.2166993  24.8652753  68.3628903  52.6806993  24.3592753  68.8308903
  53.2366993  24.4752753  67.5828903  53.1396993  24.7322753  68.3168903
  53.7016993  24.2622753  53.5028903  53.5736993  23.8142753  54.2408903
  53.1196993  23.9202753  52.9508903  53.5966993  24.1452753  53.5308903
  53.8686993  26.0922753  60.1018903  53.0876993  26.0332753  59.7188903
  53.9406993  25.3402753  60.5388903  53.7636993  25.9732753  60.1098903
  54.2986993  25.8292753  63.5698903  54.3236993  25.1542753  63.0188903
  53.6526993  26.3252753  63.2578903  54.2076993  25.8022753  63.4428903
  64.1936993  23.5422753  61.9658903  63.5316993  23.8702753  62.4288903
  64.3806993  24.1762753  61.3968903  64.1236993  23.6842753  61.9498903
  58.3986993  34.6062753  62.9618903  58.1216993  33.9652753  62.4388903
  58.1906993  35.3322753  62.5238903  58.3276993  34.6192753  62.8198903
  60.8386993  19.4482753  65.3948903  60.9876993  18.6232753  65.1518903
  61.2176993  19.5032753  66.1788903  60.9166993  19.3342753  65.4748903
  62.3866993  21.5112753  55.4768903  62.8766993  22.2282753  55.3998903
  61.5966993  21.7722753  55.2138903  62.3426993  21.6552753  55.4268903
  52.0976993  27.1842753  69.1288903  52.0606993  27.6852753  68.4148903
  52.4286993  26.4322753  68.8338903  52.1406993  27.1462753  68.9798903
  63.7006993  29.3892753  67.3868903  64.1846993  30.1072753  67.4848903
  64.0946993  28.9622753  66.7358903  63.8306993  29.4322753  67.3048903
  57.9966993  32.2342753  68.5638903  58.3506993  32.0562753  69.3408903
  57.5606993  31.5052753  68.3648903  57.9846993  32.1002753  68.6498903
  58.9686993  22.9812753  61.2018903  59.4486993  23.6802753  61.4098903
  59.3416993  22.3342753  61.6528903  59.0946993  22.9892753  61.2988903
  61.1576993  26.1502753  53.4758903  61.1496993  26.8722753  52.9858903
  60.5186993  26.2852753  54.0528903  61.0626993  26.2772753  53.4888903
  66.1296993  30.0202753  57.4568903  66.4856993  29.6702753  58.1718903
  66.1216993  29.3592753  56.8868903  66.1816993  29.8702753  57.4778903
  62.1746993  33.0862753  61.3008903  61.5716993  32.7902753  60.7438903
  62.7196993  33.5382753  60.7918903  62.1656993  33.1092753  61.1428903
  62.1876993  29.9372753  60.7008903  61.3906993  30.1612753  60.9748903
  62.4456993  29.3432753  61.2858903  62.1076993  29.8822753  60.8278903
  55.7506993  18.4922753  53.1368903  55.8476993  18.3852753  53.9978903
  55.0426993  18.9982753  53.0718903  55.6606993  18.5512753  53.2548903
  65.4476993  27.9352753  65.5468903  65.5026993  28.0602753  64.6848903
  66.2006993  28.2552753  65.8488903  65.5666993  28.0002753  65.4638903
  61.6386993  33.2842753  69.8238903  61.8026993  33.5672753  70.6328903
  61.9016993  33.9452753  69.3188903  61.7016993  33.4242753  69.8688903
  66.4796993  18.2332753  68.5338903  65.8426993  17.8332753  68.0918903
  66.5056993  17.8022753  69.2918903  66.3896993  18.1112753  68.5798903
  52.8726993  26.7992753  54.3798903  53.1966993  26.0202753  54.1578903
  53.5186993  27.1672753  54.8348903  53.0156993  26.7382753  54.4138903
  61.1786993  27.7412753  65.1468903  61.0236993  28.3512753  65.7508903
  61.7126993  27.1832753  65.5528903  61.2346993  27.7492753  65.2958903
  49.8696993  18.4602753  55.3478903  49.9986993  17.7522753  54.8558903
  49.5026993  18.1422753  56.0728903  49.8346993  18.3082753  55.3828903
  59.5626993  26.1412753  55.8048903  59.6216993  26.7912753  56.3838903
  59.3736993  25.4452753  56.2958903  59.5436993  26.1342753  55.9628903
  64.7886993  30.4702753  61.6738903  64.3096993  30.7682753  61.0078903
  64.4326993  29.6942753  61.8518903  64.6656993  30.3992753  61.6018903
  54.0586993  20.6582753  52.3168903  53.5476993  20.7112753  51.6108903
  54.8426993  20.8982753  52.0208903  54.0986993  20.7012753  52.1688903
  58.7856993  28.1882753  60.2358903  57.9386993  27.9942753  60.3168903
  59.1096993  28.0232753  61.0288903  58.7076993  28.1352753  60.3648903
  52.6336993  27.8812753  62.5518903  53.3556993  28.3692753  62.5148903
  52.3636993  27.8512753  61.7228903  52.7006993  27.9492753  62.4238903
  55.8636993  23.0522753  59.2868903  56.7096993  22.8622753  59.3848903
  55.4936993  22.2752753  59.1488903  55.9336993  22.9092753  59.2808903
  68.4806993  34.6362753  53.6138903  69.1746993  34.1692753  53.3658903
  67.9416993  34.0382753  53.9508903  68.5036993  34.4782753  53.6268903
  50.6846993  24.3902753  55.9418903  51.1736993  24.0982753  56.6028903
  50.8136993  23.7972753  55.3148903  50.7756993  24.2592753  55.9468903
  65.7196993  27.4122753  62.7928903  65.7126993  26.6362753  63.1908903
  64.8786993  27.6462753  62.7858903  65.5946993  27.3322753  62.8508903
  55.2096993  25.8242753  51.4278903  54.5996993  25.4192753  51.9018903
  54.8236993  25.9422753  50.6548903  55.0626993  25.7812753  51.3838903
  52.0286993  28.9332753  66.8298903  51.6076993  28.4152753  66.2688903
  51.6766993  29.7192753  66.6868903  51.9146993  28.9732753  66.7258903
  66.9756993  27.4832753  60.2298903  66.6896993  27.8842753  60.9498903
  67.8356993  27.4212753  60.3568903  67.0606993  27.5332753  60.3548903
  56.6646993  24.2852753  54.1378903  56.9366993  25.1112753  54.2048903
  55.8016993  24.3602753  54.0418903  56.5776993  24.4182753  54.1328903
  64.6376993  21.4072753  68.7698903  64.1126993  21.8662753  69.2938903
  64.2766993  20.6122753  68.7638903  64.5066993  21.3572753  68.8458903
  50.1446993  20.2552753  60.6738903  50.1886993  20.5992753  59.8728903
  50.8996993  20.4922753  61.0408903  50.2626993  20.3412753  60.6098903
  68.1066993  33.1162753  60.7588903  68.3966993  33.3732753  59.9778903
  68.8016993  33.2122753  61.2778903  68.2526993  33.1682753  60.7198903
  63.1296993  24.9762753  68.8458903  63.2026993  25.0802753  69.7088903
  62.4956993  25.5342753  68.6248903  63.0466993  25.0742753  68.9408903
  65.3976993  25.2952753  67.2108903  65.7166993  26.0812753  67.4138903
  65.0276993  25.0252753  67.9538903  65.3906993  25.3712753  67.3508903
  64.7116993  31.7192753  52.7408903  65.0456993  30.9132753  52.7758903
  63.9566993  31.6472753  53.1708903  64.6496993  31.5892753  52.8098903
  65.1936993  23.5532753  58.3998903  64.4486993  23.2302753  58.7178903
  65.1956993  24.3792753  58.6798903  65.0836993  23.6272753  58.4878903
  68.0956993  25.8372753  69.9458903  68.0436993  25.4962753  69.1448903
  68.8326993  26.3042753  69.9238903  68.1966993  25.8562753  69.8238903
  67.6336993  29.5132753  66.1518903  68.2616993  28.9642753  65.8958903
  67.5726993  30.0782753  65.4898903  67.7176993  29.5162753  66.0158903
  62.0856993  29.5942753  52.1438903  62.7696993  29.0802753  51.9748903
  61.6686993  29.6402753  51.3788903  62.1246993  29.5252753  52.0058903
  56.7676993  30.7442753  63.4478903  56.4696993  31.3362753  64.0148903
  56.8226993  31.1862753  62.6988903  56.7316993  30.8972753  63.4208903
  54.7466993  29.6942753  66.8458903  53.9406993  29.4042753  67.0128903
  54.6576993  30.5622753  66.8518903  54.6146993  29.7792753  66.8708903
  64.1056993  19.8832753  65.8608903  64.8496993  20.3352753  65.7978903
  63.5396993  20.3532753  65.3918903  64.1326993  20.0202753  65.7828903
  59.2836993  27.1672753  62.9388903  59.7596993  27.5412753  63.5668903
  58.4606993  27.3012753  63.1978903  59.2326993  27.2422753  63.0698903
  55.9936993  22.7702753  65.6798903  56.1546993  22.0262753  66.1068903
  55.9486993  22.5212753  64.8448903  56.0106993  22.6232753  65.6198903
  58.5476993  34.5602753  58.1668903  59.0936993  35.2392753  58.2208903
  58.1976993  34.6422753  57.3718903  58.5766993  34.6732753  58.0568903
  65.3906993  17.8632753  63.5308903  65.1106993  18.6882753  63.4868903
  66.1066993  17.9162753  64.0268903  65.4556993  17.9932753  63.5978903
  57.7456993  18.5782753  65.5598903  58.4506993  18.8982753  65.1578903
  57.9866993  17.7712753  65.7868903  57.8846993  18.5062753  65.5338903
  56.7306993  32.7882753  61.5558903  56.1066993  33.3702753  61.3738903
  56.9786993  32.5022753  60.7698903  56.6746993  32.8322753  61.4128903
  61.0396993  29.4222753  68.5448903  61.7966993  29.7082753  68.2188903
  60.4926993  29.4742753  67.8668903  61.0706993  29.4722753  68.3958903
  64.9486993  31.9722753  67.0488903  65.2946993  32.2422753  67.8028903
  65.2426993  32.5542753  66.4688903  65.0436993  32.0982753  67.0748903
  66.8116993  24.1182753  52.3878903  67.1896993  24.7952753  51.9878903
  65.9696993  24.3422753  52.4188903  66.7426993  24.2512753  52.3328903
  58.3246993  27.5642753  51.4708903  57.5196993  27.3872753  51.1858903
  58.2916993  28.4152753  51.6628903  58.2006993  27.6632753  51.4578903
  54.2546993  23.6312753  61.6208903  54.6946993  23.5282753  60.8748903
  54.7996993  23.3182753  62.2258903  54.3996993  23.5702753  61.5998903
  62.2706993  22.7332753  67.2128903  61.6226993  23.2032753  67.5608903
  62.8356993  22.6442753  67.8718903  62.2586993  22.7892753  67.3618903
  61.9586993  24.2702753  63.5108903  62.2606993  24.6902753  64.2138903
  61.9946993  23.4302753  63.7428903  62.0086993  24.2082753  63.6488903
  59.3836993  34.4372753  67.4358903  59.8616993  33.8372753  67.0198903
  59.0326993  33.9942753  68.1008903  59.4026993  34.2832753  67.4728903
  64.5066993  23.7172753  55.7628903  64.7136993  23.5162753  56.5868903
  65.2626993  23.9852753  55.4208903  64.6486993  23.7272753  55.8338903
  57.8016993  18.6162753  61.6678903  56.9756993  18.4672753  61.9048903
  57.7616993  18.6512753  60.7968903  57.6736993  18.5992753  61.5738903
  65.5286993  19.8002753  57.2368903  64.8146993  19.3292753  57.4078903
  65.3666993  20.1412753  56.4508903  65.3996993  19.7812753  57.1458903
  65.9716993  27.7442753  55.6168903  66.4476993  27.0152753  55.5688903
  65.1506993  27.4582753  55.5408903  65.9206993  27.5942753  55.5978903
  59.4426993  29.6562753  66.4558903  58.6476993  29.5922753  66.8068903
  59.5136993  30.5032753  66.2608903  59.3356993  29.7712753  66.4788903
  50.3666993  19.0142753  67.7028903  50.2266993  19.8092753  67.3718903
  49.5806993  18.7712753  67.9918903  50.2296993  19.0962753  67.6968903
  53.4306993  21.7582753  54.9278903  53.5566993  21.4292753  54.1298903
  52.6186993  21.5092753  55.1268903  53.3296993  21.6732753  54.8398903
  62.1876993  28.9112753  57.9718903  62.2636993  29.2522753  58.7708903
  62.3566993  28.0642753  58.0928903  62.2236993  28.8362753  58.1078903
  59.7096993  28.1852753  57.5368903  59.4116993  27.8702753  58.2938903
  60.4046993  28.6582753  57.7718903  59.7686993  28.2082753  57.6838903
  59.9316993  32.3032753  65.5638903  60.6186993  32.1892753  66.0888903
  60.0656993  33.0942753  65.2198903  60.0526993  32.4032753  65.5908903
  68.1076993  24.9122753  67.3748903  67.2526993  24.7902753  67.5008903
  68.2606993  24.5172753  66.6118903  68.0036993  24.8352753  67.2808903
  62.6206993  25.5772753  65.9508903  62.3656993  24.8582753  66.3728903
  63.4416993  25.6932753  66.2208903  62.7046993  25.4882753  66.0528903
  52.0366993  35.3612753  67.2148903  51.3826993  34.7922753  67.3128903
  51.6616993  36.1342753  67.3658903  51.8846993  35.3912753  67.2518903
  60.5546993  26.7672753  69.1378903  60.8776993  27.4532753  68.7058903
  59.8506993  27.0902753  69.5398903  60.4976993  26.9162753  69.1328903
  63.6386993  35.1412753  60.0668903  63.1876993  35.7842753  60.4458903
  64.3466993  35.0622753  60.5718903  63.6766993  35.2242753  60.1978903
  60.3396993  30.2312753  62.9968903  59.6456993  30.6332753  63.3398903
  61.0166993  30.6642753  63.3358903  60.3366993  30.3542753  63.0978903
  65.7166993  32.8242753  69.5768903  66.4926993  32.4342753  69.6598903
  65.2476993  32.4882753  70.2318903  65.7616993  32.7172753  69.6858903
  53.4076993  23.7692753  65.3438903  53.7826993  24.3882753  64.8568903
  54.0816993  23.2952753  65.6288903  53.5626993  23.7912753  65.3138903
  51.1826993  22.2172753  64.6188903  51.2596993  22.0482753  63.7658903
  51.9286993  22.6232753  64.8158903  51.3036993  22.2522753  64.5218903
  66.7416993  24.8572753  55.0588903  66.8446993  24.7992753  54.1948903
  67.4826993  24.5252753  55.3768903  66.8666993  24.8002753  54.9778903
  53.7366993  19.6272753  67.0298903  53.6556993  18.7832753  67.2358903
  53.4226993  19.6712753  66.2168903  53.6786993  19.5092753  66.9398903
  60.6616993  31.8222753  56.1658903  60.4566993  32.6552753  56.0068903
  59.8866993  31.4402753  56.2878903  60.5166993  31.8892753  56.1608903
  65.8436993  25.0032753  64.4148903  65.8416993  24.1402753  64.5388903
  65.9106993  25.3272753  65.2218903  65.8536993  24.9232753  64.5518903
  50.5796993  27.4432753  64.8428903  50.8996993  27.6622753  64.0618903
  50.4796993  26.5782753  64.7878903  50.6116993  27.3482753  64.7198903
  52.0356993  23.3792753  51.4608903  51.3636993  23.3932753  52.0168903
  52.1306993  22.5312753  51.2768903  51.9506993  23.2562753  51.5158903
  61.7226993  19.8032753  68.1968903  61.8146993  20.5152753  68.6908903
  61.0856993  19.3582753  68.5938903  61.6416993  19.8422753  68.3288903
  60.7166993  19.9932753  59.0508903  60.0166993  20.5112753  58.9948903
  60.7546993  19.6132753  58.2668903  60.6186993  20.0142753  58.9268903
  64.3146993  20.5092753  61.8508903  65.1696993  20.6082753  61.9958903
  63.9456993  21.0622753  62.4158903  64.3866993  20.6062753  61.9558903
  55.3426993  26.7352753  66.2278903  54.9466993  27.5092753  66.3028903
  54.9366993  26.3622753  65.5518903  55.2246993  26.7942753  66.1388903
  64.6186993  25.7892753  60.3418903  65.2846993  26.3302753  60.5018903
  64.2736993  26.1002753  59.6028903  64.6656993  25.9152753  60.2568903
  64.9316993  33.8552753  56.1488903  64.7576993  33.2012753  56.6988903
  65.6446993  33.5842753  55.7258903  65.0116993  33.7182753  56.1678903
  56.1716993  29.3992753  51.9188903  55.3536993  29.1312753  52.0588903
  56.1436993  30.2512753  52.1038903  56.0466993  29.4862753  51.9668903
  55.7716993  19.7122753  63.6778903  54.9076993  19.7962753  63.7578903
  55.9916993  19.1982753  64.3468903  55.6766993  19.6492753  63.7888903
  67.7896993  18.3472753  65.0068903  67.7376993  18.3032753  65.8768903
  68.4766993  17.8442753  64.8168903  67.8836993  18.2672753  65.1068903
  59.8746993  20.4602753  62.0518903  59.1376993  20.0062753  62.1648903
  60.4456993  20.0582753  62.5748903  59.8496993  20.3332753  62.1458903
  62.6066993  31.3082753  63.8398903  62.8126993  31.6092753  64.6318903
  62.5456993  32.0302753  63.3548903  62.6276993  31.4592753  63.8848903
  62.1406993  35.5222753  68.0858903  61.3876993  35.5042753  67.6448903
  62.3086993  36.3742753  68.1698903  62.0546993  35.6452753  68.0328903
  57.3776993  24.7892753  67.2558903  57.0556993  24.2132753  66.6858903
  57.0186993  25.5442753  67.0098903  57.2776993  24.8152753  67.1358903
  58.1736993  18.0412753  51.8828903  58.2516993  18.2882753  51.0498903
  57.4306993  18.4182753  52.1408903  58.0756993  18.1332753  51.7978903
  67.4186993  29.9472753  63.2978903  67.3866993  29.0852753  63.1628903
  66.7256993  30.2492753  62.8638903  67.3116993  29.8642753  63.2138903
  55.8126993  35.1452753  67.5038903  55.8536993  35.2712753  68.3668903
  56.4636993  34.5852753  67.3478903  55.9146993  35.0812753  67.6088903
  65.5236993  33.2072753  62.0948903  66.0506993  33.1242753  61.4038903
  65.1326993  32.4292753  62.1488903  65.5436993  33.0802753  62.0008903
  52.9916993  19.7952753  64.3258903  52.6486993  19.0282753  64.0918903
  52.2966993  20.3192753  64.3898903  52.8386993  19.7592753  64.3008903
  62.0376993  18.6512753  61.3028903  62.7076993  19.1952753  61.4298903
  61.5346993  19.0752753  60.7298903  62.0626993  18.7942753  61.2368903
  53.4056993  33.5282753  68.8638903  54.0006993  33.9592753  69.3358903
  53.0416993  34.1522753  68.3748903  53.4396993  33.6842753  68.8608903
  61.3966993  24.4592753  58.7958903  61.9476993  23.8522753  59.0958903
  60.9716993  24.7222753  59.5108903  61.4156993  24.4082753  58.9448903
  51.6446993  23.1092753  58.2818903  51.2766993  23.4112753  59.0128903
  52.1786993  22.4802753  58.5658903  51.6686993  23.0612753  58.4318903
  51.3326993  31.5172753  65.7928903  50.7586993  31.9332753  66.3018903
  52.0656993  31.9822753  65.8878903  51.3566993  31.6472753  65.8818903
  63.3666993  26.2902753  55.3578903  63.4346993  25.4402753  55.5388903
  62.5436993  26.3762753  55.0798903  63.2546993  26.1772753  55.3438903
  57.2856993  27.1812753  54.2958903  57.3856993  27.3202753  53.4408903
  58.1036993  27.1212753  54.5918903  57.4206993  27.1922753  54.2128903
  66.4456993  35.2452753  51.7758903  67.0826993  35.1112753  52.3568903
  66.1046993  34.4512753  51.6588903  66.4896993  35.1082753  51.8438903
  66.6406993  27.6632753  68.5088903  67.2746993  27.4932753  69.0828903
  67.0576993  28.0662753  67.8568903  66.7956993  27.6982753  68.4978903
  62.5206993  31.5102753  54.0978903  62.2696993  31.3822753  54.9238903
  62.2036993  30.8152753  53.6768903  62.4366993  31.3892753  54.1578903
  67.2656993  22.2272753  69.2468903  67.0696993  22.8712753  69.8018903
  66.5436993  21.7372753  69.2388903  67.1306993  22.2502753  69.3278903
  67.1646993  23.1682753  62.2178903  66.3316993  23.4182753  62.1458903
  67.1086993  22.3282753  62.4468903  67.0336993  23.0812753  62.2408903
  56.4246993  20.1562753  67.4118903  56.6586993  19.5802753  66.7988903
  55.5826993  19.9752753  67.5528903  56.3346993  20.0442753  67.3418903
  64.0516993  27.7742753  69.8638903  64.9226993  27.7382753  69.8278903
  63.8326993  28.1942753  69.1318903  64.1486993  27.8302753  69.7508903
  59.4066993  29.7182753  53.5278903  60.1236993  29.3712753  53.1718903
  59.3726993  30.5182753  53.1798903  59.5076993  29.7852753  53.4238903
  51.3776993  35.8432753  64.6258903  51.8706993  35.7872753  65.3438903
  51.5656993  35.1102753  64.1908903  51.4786993  35.7262753  64.6678903
  60.8156993  18.3592753  37.7666493  60.5706993  18.8472753  37.0866493
  61.6786993  18.2862753  37.6666493  60.9066993  18.4202753  37.6516493
  60.6246993  25.2752753  42.4376493  60.1006993  25.8712753  42.8006493
  61.0216993  24.9072753  43.1216493  60.6056993  25.3092753  42.5926493
  66.7686993  32.7162753  35.4086493  67.4696993  32.1972753  35.4046493
  66.1816993  32.2712753  34.9396493  66.7856993  32.5732753  35.3386493
  63.2956993  26.3422753  39.1136493  63.3756993  26.3462753  38.2446493
  62.7116993  25.7102753  39.2626493  63.2206993  26.2492753  39.0076493
  56.3876993  22.2812753  43.6976493  57.0656993  22.2992753  43.1486493
  56.3426993  21.4452753  43.9426493  56.4806993  22.1602753  43.6526493
  60.1096993  24.3322753  48.5336493  59.2616993  24.2332753  48.3556493
  60.1386993  25.0772753  48.9876493  59.9886993  24.4282753  48.5746493
  64.6676993  17.2922753  47.6476493  64.5096993  18.0612753  47.2656493
  63.8956993  17.0722753  47.9916493  64.5296993  17.3732753  47.6426493
  57.4566993  19.0072753  39.8626493  57.5296993  19.8672753  39.9916493
  57.4186993  18.9322753  38.9946493  57.4616993  19.1232753  39.7536493
  62.1296993  21.9332753  32.1616493  61.6796993  22.6142753  32.4686493
  62.2436993  21.4292753  32.8646493  62.0806993  21.9592753  32.3106493
  56.6706993  21.3822753  51.1526493  56.7876993  20.9282753  50.4166493
  56.9586993  22.1802753  50.9496493  56.7306993  21.4332753  51.0136493
  67.5236993  21.9062753  38.4566493  67.1776993  22.5842753  38.8826493
  66.8876993  21.3082753  38.4726493  67.3786993  21.9182753  38.5216493
  62.8356993  34.6762753  44.5606493  63.5796993  35.1322753  44.5506493
  62.7146993  34.4622753  43.7236493  62.9276993  34.7122753  44.4356493
  52.4036993  20.9792753  50.1366493  51.6256993  20.5892753  50.0646493
  52.8946993  20.5672753  49.5456493  52.3606993  20.8602753  50.0386493
  59.0526993  18.6222753  49.3046493  59.2306993  17.8132753  49.0296493
  58.9096993  19.0632753  48.5656493  59.0576993  18.5682753  49.1546493
  59.6466993  23.5482753  38.0776493  59.9336993  23.3162753  37.2876493
  60.3786993  23.6272753  38.5466493  59.7966993  23.5252753  38.0306493
  60.3686993  23.8872753  33.1986493  60.6496993  24.6752753  33.4476493
  59.5926993  24.0522753  32.8356493  60.2956993  24.0282753  33.1816493
  64.4096993  35.8612753  34.6656493  65.0746993  35.7132753  34.1206493
  64.7696993  35.7782753  35.4556493  64.5616993  35.8272753  34.7016493
  67.1986993  20.2292753  43.8256493  67.9556993  20.3012753  43.3976493
  67.2616993  19.4562753  44.2246493  67.3196993  20.1262753  43.8206493
  62.0896993  31.8612753  48.2646493  62.0556993  32.2432753  49.0486493
  62.9436993  31.8192753  48.0936493  62.2106993  31.9112753  48.3556493
  62.7346993  19.9542753  34.0686493  63.2746993  19.2722753  34.1446493
  62.7966993  20.3522753  34.8426493  62.8236993  19.9122753  34.1946493
  59.9926993  22.3302753  35.3826493  59.4846993  21.6682753  35.1286493
  60.0446993  22.8342753  34.6726493  59.9256993  22.3072753  35.2406493
  59.9926993  19.2712753  35.2736493  59.5376993  18.8692753  34.6476493
  60.7656993  19.4262753  34.8986493  60.0396993  19.2352753  35.1256493
  66.8186993  35.6282753  38.6636493  66.3636993  36.3452753  38.8646493
  66.2046993  35.0572753  38.4216493  66.6606993  35.6502753  38.6576493
  58.5906993  21.6382753  39.7956493  58.6646993  22.2062753  39.1376493
  58.7116993  22.1302753  40.5056493  58.6186993  21.7952753  39.8036493
  63.8156993  31.4732753  38.2076493  64.5166993  30.9912753  38.3966493
  63.1556993  30.9042753  38.2526493  63.8216993  31.3182753  38.2416493
  62.3826993  21.8082753  45.6836493  62.2876993  22.1272753  46.4896493
  61.7896993  21.1692753  45.6456493  62.2806993  21.7602753  45.7976493
  63.0816993  28.5272753  43.8886493  62.5676993  28.1152753  44.4596493
  62.9556993  29.3712753  44.0696493  62.9876993  28.5912753  43.9996493
  63.6386993  17.7522753  38.5196493  63.6876993  17.4342753  39.3306493
  63.9616993  17.1082753  38.0266493  63.6936993  17.6102753  38.5666493
  66.1026993  21.9882753  46.8276493  66.8746993  21.7632753  47.1646493
  65.6276993  22.2052753  47.5276493  66.1466993  21.9872753  46.9806493
  66.3346993  28.9662753  34.0156493  66.4536993  28.6792753  34.8306493
  67.1416993  28.9872753  33.6856493  66.4706993  28.9272753  34.0876493
  68.5686993  33.4752753  48.2696493  67.8866993  33.7852753  47.8226493
  68.1996993  33.0172753  48.9146493  68.4126993  33.4532753  48.2986493
  64.2296993  25.5032753  33.6006493  64.0096993  26.2342753  33.1786493
  63.7816993  25.5542753  34.3476493  64.1306993  25.6182753  33.6486493
  68.4166993  20.3642753  33.0536493  67.7546993  19.7962753  33.0766493
  68.2236993  20.8762753  32.3736493  68.2906993  20.3562753  32.9566493
  57.6416993  24.0582753  50.9976493  57.1576993  24.6352753  51.4396493
  57.6136993  24.3532753  50.1766493  57.5656993  24.1872753  50.9416493
  68.7396993  24.7422753  45.6096493  68.9546993  23.9422753  45.3336493
  67.8896993  24.8022753  45.4206493  68.6456993  24.6332753  45.5406493
  66.4186993  19.9222753  35.3326493  67.1646993  19.5152753  35.5316493
  66.6816993  20.6372753  34.9076493  66.5676993  19.9682753  35.2996493
  62.8726993  22.2102753  40.4056493  63.2166993  22.3622753  41.1926493
  62.4196993  21.4722753  40.5186493  62.8566993  22.1232753  40.5386493
  66.4026993  33.8572753  46.3596493  65.7316993  34.3712753  46.5776493
  66.4656993  33.9572753  45.4956493  66.3126993  33.9482753  46.2646493
  53.2166993  24.8652753  49.3566493  52.6806993  24.3592753  49.8246493
  53.2366993  24.4752753  48.5766493  53.1396993  24.7322753  49.3106493
  64.1936993  23.5422753  42.9596493  63.5316993  23.8702753  43.4226493
  64.3806993  24.1762753  42.3906493  64.1236993  23.6842753  42.9436493
  60.8386993  19.4482753  46.3886493  60.9876993  18.6232753  46.1456493
  61.2176993  19.5032753  47.1726493  60.9166993  19.3342753  46.4686493
  62.3866993  21.5112753  36.4706493  62.8766993  22.2282753  36.3936493
  61.5966993  21.7722753  36.2076493  62.3426993  21.6552753  36.4206493
  63.7006993  29.3892753  48.3806493  64.1846993  30.1072753  48.4786493
  64.0946993  28.9622753  47.7296493  63.8306993  29.4322753  48.2986493
  58.9686993  22.9812753  42.1956493  59.4486993  23.6802753  42.4036493
  59.3416993  22.3342753  42.6466493  59.0946993  22.9892753  42.2926493
  61.1576993  26.1502753  34.4696493  61.1496993  26.8722753  33.9796493
  60.5186993  26.2852753  35.0466493  61.0626993  26.2772753  34.4826493
  66.1296993  30.0202753  38.4506493  66.4856993  29.6702753  39.1656493
  66.1216993  29.3592753  37.8806493  66.1816993  29.8702753  38.4716493
  62.1746993  33.0862753  42.2946493  61.5716993  32.7902753  41.7376493
  62.7196993  33.5382753  41.7856493  62.1656993  33.1092753  42.1366493
  62.1876993  29.9372753  41.6946493  61.3906993  30.1612753  41.9686493
  62.4456993  29.3432753  42.2796493  62.1076993  29.8822753  41.8216493
  65.4476993  27.9352753  46.5406493  65.5026993  28.0602753  45.6786493
  66.2006993  28.2552753  46.8426493  65.5666993  28.0002753  46.4576493
  61.6386993  33.2842753  50.8176493  61.8026993  33.5672753  51.6266493
  61.9016993  33.9452753  50.3126493  61.7016993  33.4242753  50.8626493
  66.4796993  18.2332753  49.5276493  65.8426993  17.8332753  49.0856493
  66.5056993  17.8022753  50.2856493  66.3896993  18.1112753  49.5736493
  61.1786993  27.7412753  46.1406493  61.0236993  28.3512753  46.7446493
  61.7126993  27.1832753  46.5466493  61.2346993  27.7492753  46.2896493
  64.7886993  30.4702753  42.6676493  64.3096993  30.7682753  42.0016493
  64.4326993  29.6942753  42.8456493  64.6656993  30.3992753  42.5956493
  55.8636993  23.0522753  40.2806493  56.7096993  22.8622753  40.3786493
  55.4936993  22.2752753  40.1426493  55.9336993  22.9092753  40.2746493
  68.4806993  34.6362753  34.6076493  69.1746993  34.1692753  34.3596493
  67.9416993  34.0382753  34.9446493  68.5036993  34.4782753  34.6206493
  65.7196993  27.4122753  43.7866493  65.7126993  26.6362753  44.1846493
  64.8786993  27.6462753  43.7796493  65.5946993  27.3322753  43.8446493
  66.9756993  27.4832753  41.2236493  66.6896993  27.8842753  41.9436493
  67.8356993  27.4212753  41.3506493  67.0606993  27.5332753  41.3486493
  64.6376993  21.4072753  49.7636493  64.1126993  21.8662753  50.2876493
  64.2766993  20.6122753  49.7576493  64.5066993  21.3572753  49.8396493
  68.1066993  33.1162753  41.7526493  68.3966993  33.3732753  40.9716493
  68.8016993  33.2122753  42.2716493  68.2526993  33.1682753  41.7136493
  63.1296993  24.9762753  49.8396493  63.2026993  25.0802753  50.7026493
  62.4956993  25.5342753  49.6186493  63.0466993  25.0742753  49.9346493
  65.3976993  25.2952753  48.2046493  65.7166993  26.0812753  48.4076493
  65.0276993  25.0252753  48.9476493  65.3906993  25.3712753  48.3446493
  64.7116993  31.7192753  33.7346493  65.0456993  30.9132753  33.7696493
  63.9566993  31.6472753  34.1646493  64.6496993  31.5892753  33.8036493
  65.1936993  23.5532753  39.3936493  64.4486993  23.2302753  39.7116493
  65.1956993  24.3792753  39.6736493  65.0836993  23.6272753  39.4816493
  68.0956993  25.8372753  50.9396493  68.0436993  25.4962753  50.1386493
  68.8326993  26.3042753  50.9176493  68.1966993  25.8562753  50.8176493
  67.6336993  29.5132753  47.1456493  68.2616993  28.9642753  46.8896493
  67.5726993  30.0782753  46.4836493  67.7176993  29.5162753  47.0096493
  62.0856993  29.5942753  33.1376493  62.7696993  29.0802753  32.9686493
  61.6686993  29.6402753  32.3726493  62.1246993  29.5252753  32.9996493
  64.1056993  19.8832753  46.8546493  64.8496993  20.3352753  46.7916493
  63.5396993  20.3532753  46.3856493  64.1326993  20.0202753  46.7766493
  59.2836993  27.1672753  43.9326493  59.7596993  27.5412753  44.5606493
  58.4606993  27.3012753  44.1916493  59.2326993  27.2422753  44.0636493
  55.9936993  22.7702753  46.6736493  56.1546993  22.0262753  47.1006493
  55.9486993  22.5212753  45.8386493  56.0106993  22.6232753  46.6136493
  65.3906993  17.8632753  44.5246493  65.1106993  18.6882753  44.4806493
  66.1066993  17.9162753  45.0206493  65.4556993  17.9932753  44.5916493
  57.7456993  18.5782753  46.5536493  58.4506993  18.8982753  46.1516493
  57.9866993  17.7712753  46.7806493  57.8846993  18.5062753  46.5276493
  61.0396993  29.4222753  49.5386493  61.7966993  29.7082753  49.2126493
  60.4926993  29.4742753  48.8606493  61.0706993  29.4722753  49.3896493
  64.9486993  31.9722753  48.0426493  65.2946993  32.2422753  48.7966493
  65.2426993  32.5542753  47.4626493  65.0436993  32.0982753  48.0686493
  66.8116993  24.1182753  33.3816493  67.1896993  24.7952753  32.9816493
  65.9696993  24.3422753  33.4126493  66.7426993  24.2512753  33.3266493
  62.2706993  22.7332753  48.2066493  61.6226993  23.2032753  48.5546493
  62.8356993  22.6442753  48.8656493  62.2586993  22.7892753  48.3556493
  61.9586993  24.2702753  44.5046493  62.2606993  24.6902753  45.2076493
  61.9946993  23.4302753  44.7366493  62.0086993  24.2082753  44.6426493
  64.5066993  23.7172753  36.7566493  64.7136993  23.5162753  37.5806493
  65.2626993  23.9852753  36.4146493  64.6486993  23.7272753  36.8276493
  57.8016993  18.6162753  42.6616493  56.9756993  18.4672753  42.8986493
  57.7616993  18.6512753  41.7906493  57.6736993  18.5992753  42.5676493
  65.5286993  19.8002753  38.2306493  64.8146993  19.3292753  38.4016493
  65.3666993  20.1412753  37.4446493  65.3996993  19.7812753  38.1396493
  65.9716993  27.7442753  36.6106493  66.4476993  27.0152753  36.5626493
  65.1506993  27.4582753  36.5346493  65.9206993  27.5942753  36.5916493
  59.4426993  29.6562753  47.4496493  58.6476993  29.5922753  47.8006493
  59.5136993  30.5032753  47.2546493  59.3356993  29.7712753  47.4726493
  62.1876993  28.9112753  38.9656493  62.2636993  29.2522753  39.7646493
  62.3566993  28.0642753  39.0866493  62.2236993  28.8362753  39.1016493
  68.1076993  24.9122753  48.3686493  67.2526993  24.7902753  48.4946493
  68.2606993  24.5172753  47.6056493  68.0036993  24.8352753  48.2746493
  62.6206993  25.5772753  46.9446493  62.3656993  24.8582753  47.3666493
  63.4416993  25.6932753  47.2146493  62.7046993  25.4882753  47.0466493
  60.5546993  26.7672753  50.1316493  60.8776993  27.4532753  49.6996493
  59.8506993  27.0902753  50.5336493  60.4976993  26.9162753  50.1266493
  63.6386993  35.1412753  41.0606493  63.1876993  35.7842753  41.4396493
  64.3466993  35.0622753  41.5656493  63.6766993  35.2242753  41.1916493
  65.7166993  32.8242753  50.5706493  66.4926993  32.4342753  50.6536493
  65.2476993  32.4882753  51.2256493  65.7616993  32.7172753  50.6796493
  66.7416993  24.8572753  36.0526493  66.8446993  24.7992753  35.1886493
  67.4826993  24.5252753  36.3706493  66.8666993  24.8002753  35.9716493
  53.7366993  19.6272753  48.0236493  53.6556993  18.7832753  48.2296493
  53.4226993  19.6712753  47.2106493  53.6786993  19.5092753  47.9336493
  65.8436993  25.0032753  45.4086493  65.8416993  24.1402753  45.5326493
  65.9106993  25.3272753  46.2156493  65.8536993  24.9232753  45.5456493
  61.7226993  19.8032753  49.1906493  61.8146993  20.5152753  49.6846493
  61.0856993  19.3582753  49.5876493  61.6416993  19.8422753  49.3226493
  60.7166993  19.9932753  40.0446493  60.0166993  20.5112753  39.9886493
  60.7546993  19.6132753  39.2606493  60.6186993  20.0142753  39.9206493
  64.3146993  20.5092753  42.8446493  65.1696993  20.6082753  42.9896493
  63.9456993  21.0622753  43.4096493  64.3866993  20.6062753  42.9496493
  64.6186993  25.7892753  41.3356493  65.2846993  26.3302753  41.4956493
  64.2736993  26.1002753  40.5966493  64.6656993  25.9152753  41.2506493
  64.9316993  33.8552753  37.1426493  64.7576993  33.2012753  37.6926493
  65.6446993  33.5842753  36.7196493  65.0116993  33.7182753  37.1616493
  55.7716993  19.7122753  44.6716493  54.9076993  19.7962753  44.7516493
  55.9916993  19.1982753  45.3406493  55.6766993  19.6492753  44.7826493
  67.7896993  18.3472753  46.0006493  67.7376993  18.3032753  46.8706493
  68.4766993  17.8442753  45.8106493  67.8836993  18.2672753  46.1006493
  59.8746993  20.4602753  43.0456493  59.1376993  20.0062753  43.1586493
  60.4456993  20.0582753  43.5686493  59.8496993  20.3332753  43.1396493
  62.6066993  31.3082753  44.8336493  62.8126993  31.6092753  45.6256493
  62.5456993  32.0302753  44.3486493  62.6276993  31.4592753  44.8786493
  62.1406993  35.5222753  49.0796493  61.3876993  35.5042753  48.6386493
  62.3086993  36.3742753  49.1636493  62.0546993  35.6452753  49.0266493
  57.3776993  24.7892753  48.2496493  57.0556993  24.2132753  47.6796493
  57.0186993  25.5442753  48.0036493  57.2776993  24.8152753  48.1296493
  58.1736993  18.0412753  32.8766493  58.2516993  18.2882753  32.0436493
  57.4306993  18.4182753  33.1346493  58.0756993  18.1332753  32.7916493
  67.4186993  29.9472753  44.2916493  67.3866993  29.0852753  44.1566493
  66.7256993  30.2492753  43.8576493  67.3116993  29.8642753  44.2076493
  65.5236993  33.2072753  43.0886493  66.0506993  33.1242753  42.3976493
  65.1326993  32.4292753  43.1426493  65.5436993  33.0802753  42.9946493
  62.0376993  18.6512753  42.2966493  62.7076993  19.1952753  42.4236493
  61.5346993  19.0752753  41.7236493  62.0626993  18.7942753  42.2306493
  61.3966993  24.4592753  39.7896493  61.9476993  23.8522753  40.0896493
  60.9716993  24.7222753  40.5046493  61.4156993  24.4082753  39.9386493
  63.3666993  26.2902753  36.3516493  63.4346993  25.4402753  36.5326493
  62.5436993  26.3762753  36.0736493  63.2546993  26.1772753  36.3376493
  66.4456993  35.2452753  32.7696493  67.0826993  35.1112753  33.3506493
  66.1046993  34.4512753  32.6526493  66.4896993  35.1082753  32.8376493
  66.6406993  27.6632753  49.5026493  67.2746993  27.4932753  50.0766493
  67.0576993  28.0662753  48.8506493  66.7956993  27.6982753  49.4916493
  62.5206993  31.5102753  35.0916493  62.2696993  31.3822753  35.9176493
  62.2036993  30.8152753  34.6706493  62.4366993  31.3892753  35.1516493
  67.2656993  22.2272753  50.2406493  67.0696993  22.8712753  50.7956493
  66.5436993  21.7372753  50.2326493  67.1306993  22.2502753  50.3216493
  67.1646993  23.1682753  43.2116493  66.3316993  23.4182753  43.1396493
  67.1086993  22.3282753  43.4406493  67.0336993  23.0812753  43.2346493
  56.4246993  20.1562753  48.4056493  56.6586993  19.5802753  47.7926493
  55.5826993  19.9752753  48.5466493  56.3346993  20.0442753  48.3356493
  64.0516993  27.7742753  50.8576493  64.9226993  27.7382753  50.8216493
  63.8326993  28.1942753  50.1256493  64.1486993  27.8302753  50.7446493
  60.8156993  18.3592753  18.7604083  60.5706993  18.8472753  18.0804083
  61.6786993  18.2862753  18.6604083  60.9066993  18.4202753  18.6454083
  60.6246993  25.2752753  23.4314083  60.1006993  25.8712753  23.7944083
  61.0216993  24.9072753  24.1154083  60.6056993  25.3092753  23.5864083
  66.7686993  32.7162753  16.4024083  67.4696993  32.1972753  16.3984083
  66.1816993  32.2712753  15.9334083  66.7856993  32.5732753  16.3324083
  50.2366993  23.2072753  15.3944083  49.4586993  23.3692753  15.0344083
  50.2756993  22.3362753  15.4164083  50.1276993  23.1022753  15.3444083
  53.3756993  28.4702753  14.0664083  52.9836993  28.0992753  13.3804083
  53.2956993  27.8722753  14.6954083  53.3056993  28.3272753  14.0574083
  63.2956993  26.3422753  20.1074083  63.3756993  26.3462753  19.2384083
  62.7116993  25.7102753  20.2564083  63.2206993  26.2492753  20.0014083
  57.2846993  19.4462753  17.9154083  57.2146993  20.1232753  17.3694083
  58.0256993  19.0582753  17.6664083  57.3836993  19.4892753  17.7974083
  51.8796993  26.6712753  19.3444083  51.4176993  26.2792753  18.7174083
  52.5796993  26.1582753  19.4364083  51.9146993  26.5382753  19.2654083
  56.3876993  22.2812753  24.6914083  57.0656993  22.2992753  24.1424083
  56.3426993  21.4452753  24.9364083  56.4806993  22.1602753  24.6464083
  56.9896993  32.8672753  27.4724083  57.1276993  33.6272753  27.0654083
  57.7806993  32.5022753  27.4994083  57.1266993  32.9262753  27.4164083
  53.8806993  24.7712753  19.3674083  54.6976993  24.5842753  19.6104083
  53.4036993  24.1572753  19.7634083  53.9306993  24.6532753  19.4624083
  58.0846993  30.7522753  21.9774083  58.4326993  29.9532753  22.0074083
  58.7496993  31.2562753  21.7224083  58.2346993  30.7082753  21.9444083
  58.1416993  30.2012753  18.1884083  58.4726993  29.5572753  18.6744083
  58.3816993  29.9902753  17.3774083  58.2256993  30.0752753  18.1404083
  60.1096993  24.3322753  29.5274083  59.2616993  24.2332753  29.3494083
  60.1386993  25.0772753  29.9814083  59.9886993  24.4282753  29.5684083
  54.4776993  19.8652753  18.6334083  54.1816993  20.3662753  17.9834083
  55.3446993  19.9432753  18.5764083  54.5616993  19.9512753  18.5294083
  64.6676993  17.2922753  28.6414083  64.5096993  18.0612753  28.2594083
  63.8956993  17.0722753  28.9854083  64.5296993  17.3732753  28.6364083
  57.4566993  19.0072753  20.8564083  57.5296993  19.8672753  20.9854083
  57.4186993  18.9322753  19.9884083  57.4616993  19.1232753  20.7474083
  62.1296993  21.9332753  13.1554083  61.6796993  22.6142753  13.4624083
  62.2436993  21.4292753  13.8584083  62.0806993  21.9592753  13.3044083
  50.3356993  24.4322753  22.3574083  50.0796993  25.2632753  22.2824083
  49.6716993  24.0492753  22.7744083  50.1996993  24.4982753  22.4084083
  56.0856993  31.9862753  17.7374083  55.5066993  31.7112753  18.3294083
  56.7096993  31.3772753  17.7624083  56.0926993  31.8562753  17.8284083
  62.2286993  34.2742753  15.2594083  62.9556993  34.7462753  15.3614083
  62.4576993  33.4802753  15.5394083  62.3706993  34.2272753  15.3164083
  60.3966993  34.6662753  17.2494083  60.6106993  35.1932753  17.9114083
  61.1636993  34.4922753  16.8704083  60.5416993  34.7182753  17.2914083
  53.3646993  19.2492753  22.8484083  52.8436993  18.6212753  22.5404083
  53.9556993  18.8122753  23.3194083  53.3756993  19.0912753  22.8724083
  67.5236993  21.9062753  19.4504083  67.1776993  22.5842753  19.8764083
  66.8876993  21.3082753  19.4664083  67.3786993  21.9182753  19.5154083
  62.8356993  34.6762753  25.5544083  63.5796993  35.1322753  25.5444083
  62.7146993  34.4622753  24.7174083  62.9276993  34.7122753  25.4294083
  59.0526993  18.6222753  30.2984083  59.2306993  17.8132753  30.0234083
  58.9096993  19.0632753  29.5594083  59.0576993  18.5682753  30.1484083
  59.6466993  23.5482753  19.0714083  59.9336993  23.3162753  18.2814083
  60.3786993  23.6272753  19.5404083  59.7966993  23.5252753  19.0244083
  60.3686993  23.8872753  14.1924083  60.6496993  24.6752753  14.4414083
  59.5926993  24.0522753  13.8294083  60.2956993  24.0282753  14.1754083
  64.4096993  35.8612753  15.6594083  65.0746993  35.7132753  15.1144083
  64.7696993  35.7782753  16.4494083  64.5616993  35.8272753  15.6954083
  67.1986993  20.2292753  24.8194083  67.9556993  20.3012753  24.3914083
  67.2616993  19.4562753  25.2184083  67.3196993  20.1262753  24.8144083
  62.0896993  31.8612753  29.2584083  62.0556993  32.2432753  30.0424083
  62.9436993  31.8192753  29.0874083  62.2106993  31.9112753  29.3494083
  59.2276993  32.0582753  14.0084083  59.0466993  32.6032753  14.6654083
  59.9936993  32.3482753  13.7074083  59.3136993  32.1822753  14.0614083
  62.7346993  19.9542753  15.0624083  63.2746993  19.2722753  15.1384083
  62.7966993  20.3522753  15.8364083  62.8236993  19.9122753  15.1884083
  50.6886993  21.1222753  17.6314083  50.5746993  20.2582753  17.6624083
  50.2136993  21.4162753  18.3014083  50.6016993  21.0382753  17.7344083
  59.9926993  22.3302753  16.3764083  59.4846993  21.6682753  16.1224083
  60.0446993  22.8342753  15.6664083  59.9256993  22.3072753  16.2344083
  60.5416993  35.0252753  26.7564083  61.3096993  34.9452753  26.3504083
  59.9586993  34.9042753  26.1184083  60.5686993  34.9952753  26.6024083
  59.9926993  19.2712753  16.2674083  59.5376993  18.8692753  15.6414083
  60.7656993  19.4262753  15.8924083  60.0396993  19.2352753  16.1194083
  66.8186993  35.6282753  19.6574083  66.3636993  36.3452753  19.8584083
  66.2046993  35.0572753  19.4154083  66.6606993  35.6502753  19.6514083
  58.5906993  21.6382753  20.7894083  58.6646993  22.2062753  20.1314083
  58.7116993  22.1302753  21.4994083  58.6186993  21.7952753  20.7974083
  63.8156993  31.4732753  19.2014083  64.5166993  30.9912753  19.3904083
  63.1556993  30.9042753  19.2464083  63.8216993  31.3182753  19.2354083
  53.1986993  17.4612753  19.1374083  53.7346993  18.1492753  19.1274083
  53.2016993  17.1872753  18.3094083  53.2776993  17.5222753  19.0134083
  56.1546993  27.8942753  23.1624083  56.3266993  27.6842753  23.9914083
  55.4996993  27.3602753  22.9464083  56.0836993  27.7842753  23.2534083
  62.3826993  21.8082753  26.6774083  62.2876993  22.1272753  27.4834083
  61.7896993  21.1692753  26.6394083  62.2806993  21.7602753  26.7914083
  56.9046993  27.8322753  25.7524083  56.9576993  28.6792753  25.9544083
  56.6196993  27.4622753  26.4894083  56.8706993  27.9022753  25.8904083
  63.0816993  28.5272753  24.8824083  62.5676993  28.1152753  25.4534083
  62.9556993  29.3712753  25.0634083  62.9876993  28.5912753  24.9934083
  63.6386993  17.7522753  19.5134083  63.6876993  17.4342753  20.3244083
  63.9616993  17.1082753  19.0204083  63.6936993  17.6102753  19.5604083
  66.1026993  21.9882753  27.8214083  66.8746993  21.7632753  28.1584083
  65.6276993  22.2052753  28.5214083  66.1466993  21.9872753  27.9744083
  53.6466993  21.2712753  20.7914083  53.9186993  20.8412753  20.0834083
  53.4706993  20.6352753  21.3624083  53.6606993  21.1142753  20.7714083
  66.3346993  28.9662753  15.0094083  66.4536993  28.6792753  15.8244083
  67.1416993  28.9872753  14.6794083  66.4706993  28.9272753  15.0814083
  51.7876993  22.3732753  23.8734083  52.6306993  22.5932753  23.8304083
  51.3986993  22.9462753  23.3424083  51.8546993  22.4902753  23.7884083
  68.5686993  33.4752753  29.2634083  67.8866993  33.7852753  28.8164083
  68.1996993  33.0172753  29.9084083  68.4126993  33.4532753  29.2924083
  64.2296993  25.5032753  14.5944083  64.0096993  26.2342753  14.1724083
  63.7816993  25.5542753  15.3414083  64.1306993  25.6182753  14.6424083
  55.8386993  28.7052753  18.5754083  56.5516993  29.2002753  18.6654083
  56.0606993  28.1382753  17.9494083  55.9766993  28.6942753  18.4964083
  68.4166993  20.3642753  14.0474083  67.7546993  19.7962753  14.0704083
  68.2236993  20.8762753  13.3674083  68.2906993  20.3562753  13.9504083
  68.7396993  24.7422753  26.6034083  68.9546993  23.9422753  26.3274083
  67.8896993  24.8022753  26.4144083  68.6456993  24.6332753  26.5344083
  50.0606993  27.0322753  16.9984083  49.8756993  26.1932753  17.1504083
  50.7196993  26.9962753  16.4284083  50.1306993  26.9032753  16.9364083
  66.4186993  19.9222753  16.3264083  67.1646993  19.5152753  16.5254083
  66.6816993  20.6372753  15.9014083  66.5676993  19.9682753  16.2934083
  60.3616993  32.4082753  20.9024083  59.8386993  33.0422753  20.6094083
  60.6716993  32.0442753  20.1734083  60.3296993  32.4482753  20.7514083
  62.8726993  22.2102753  21.3994083  63.2166993  22.3622753  22.1864083
  62.4196993  21.4722753  21.5124083  62.8566993  22.1232753  21.5324083
  57.3486993  21.4302753  15.8564083  57.3466993  21.3132753  14.9914083
  57.1676993  22.2782753  15.9484083  57.3216993  21.5382753  15.7424083
  66.4026993  33.8572753  27.3534083  65.7316993  34.3712753  27.5714083
  66.4656993  33.9572753  26.4894083  66.3126993  33.9482753  27.2584083
  53.7016993  24.2622753  15.4904083  53.5736993  23.8142753  16.2284083
  53.1196993  23.9202753  14.9384083  53.5966993  24.1452753  15.5184083
  53.8686993  26.0922753  22.0894083  53.0876993  26.0332753  21.7064083
  53.9406993  25.3402753  22.5264083  53.7636993  25.9732753  22.0974083
  54.2986993  25.8292753  25.5574083  54.3236993  25.1542753  25.0064083
  53.6526993  26.3252753  25.2454083  54.2076993  25.8022753  25.4304083
  64.1936993  23.5422753  23.9534083  63.5316993  23.8702753  24.4164083
  64.3806993  24.1762753  23.3844083  64.1236993  23.6842753  23.9374083
  60.8386993  19.4482753  27.3824083  60.9876993  18.6232753  27.1394083
  61.2176993  19.5032753  28.1664083  60.9166993  19.3342753  27.4624083
  62.3866993  21.5112753  17.4644083  62.8766993  22.2282753  17.3874083
  61.5966993  21.7722753  17.2014083  62.3426993  21.6552753  17.4144083
  63.7006993  29.3892753  29.3744083  64.1846993  30.1072753  29.4724083
  64.0946993  28.9622753  28.7234083  63.8306993  29.4322753  29.2924083
  58.9686993  22.9812753  23.1894083  59.4486993  23.6802753  23.3974083
  59.3416993  22.3342753  23.6404083  59.0946993  22.9892753  23.2864083
  61.1576993  26.1502753  15.4634083  61.1496993  26.8722753  14.9734083
  60.5186993  26.2852753  16.0404083  61.0626993  26.2772753  15.4764083
  66.1296993  30.0202753  19.4444083  66.4856993  29.6702753  20.1594083
  66.1216993  29.3592753  18.8744083  66.1816993  29.8702753  19.4654083
  62.1746993  33.0862753  23.2884083  61.5716993  32.7902753  22.7314083
  62.7196993  33.5382753  22.7794083  62.1656993  33.1092753  23.1304083
  62.1876993  29.9372753  22.6884083  61.3906993  30.1612753  22.9624083
  62.4456993  29.3432753  23.2734083  62.1076993  29.8822753  22.8154083
  56.0796993  34.7492753  17.1364083  55.9326993  33.9732753  17.5074083
  56.7686993  34.6022753  16.6214083  56.1596993  34.6122753  17.1154083
  55.7506993  18.4922753  15.1244083  55.8476993  18.3852753  15.9854083
  55.0426993  18.9982753  15.0594083  55.6606993  18.5512753  15.2424083
  58.3716993  34.2652753  15.5384083  58.9936993  34.4282753  16.1284083
  58.4076993  34.9562753  15.0064083  58.4686993  34.3912753  15.5474083
  65.4476993  27.9352753  27.5344083  65.5026993  28.0602753  26.6724083
  66.2006993  28.2552753  27.8364083  65.5666993  28.0002753  27.4514083
  66.4796993  18.2332753  30.5214083  65.8426993  17.8332753  30.0794083
  66.5056993  17.8022753  31.2794083  66.3896993  18.1112753  30.5674083
  52.8726993  26.7992753  16.3674083  53.1966993  26.0202753  16.1454083
  53.5186993  27.1672753  16.8224083  53.0156993  26.7382753  16.4014083
  61.1786993  27.7412753  27.1344083  61.0236993  28.3512753  27.7384083
  61.7126993  27.1832753  27.5404083  61.2346993  27.7492753  27.2834083
  49.8696993  18.4602753  17.3354083  49.9986993  17.7522753  16.8434083
  49.5026993  18.1422753  18.0604083  49.8346993  18.3082753  17.3704083
  59.5626993  26.1412753  17.7924083  59.6216993  26.7912753  18.3714083
  59.3736993  25.4452753  18.2834083  59.5436993  26.1342753  17.9504083
  64.7886993  30.4702753  23.6614083  64.3096993  30.7682753  22.9954083
  64.4326993  29.6942753  23.8394083  64.6656993  30.3992753  23.5894083
  54.0586993  20.6582753  14.3044083  53.5476993  20.7112753  13.5984083
  54.8426993  20.8982753  14.0084083  54.0986993  20.7012753  14.1564083
  58.7856993  28.1882753  22.2234083  57.9386993  27.9942753  22.3044083
  59.1096993  28.0232753  23.0164083  58.7076993  28.1352753  22.3524083
  55.5376993  34.9182753  13.1094083  55.9766993  34.2212753  13.3974083
  55.7446993  35.5422753  13.6824083  55.6336993  34.9072753  13.2364083
  52.6336993  27.8812753  24.5394083  53.3556993  28.3692753  24.5024083
  52.3636993  27.8512753  23.7104083  52.7006993  27.9492753  24.4114083
  55.8636993  23.0522753  21.2744083  56.7096993  22.8622753  21.3724083
  55.4936993  22.2752753  21.1364083  55.9336993  22.9092753  21.2684083
  68.4806993  34.6362753  15.6014083  69.1746993  34.1692753  15.3534083
  67.9416993  34.0382753  15.9384083  68.5036993  34.4782753  15.6144083
  50.6846993  24.3902753  17.9294083  51.1736993  24.0982753  18.5904083
  50.8136993  23.7972753  17.3024083  50.7756993  24.2592753  17.9344083
  65.7196993  27.4122753  24.7804083  65.7126993  26.6362753  25.1784083
  64.8786993  27.6462753  24.7734083  65.5946993  27.3322753  24.8384083
  55.2096993  25.8242753  13.4154083  54.5996993  25.4192753  13.8894083
  54.8236993  25.9422753  12.6424083  55.0626993  25.7812753  13.3714083
  66.9756993  27.4832753  22.2174083  66.6896993  27.8842753  22.9374083
  67.8356993  27.4212753  22.3444083  67.0606993  27.5332753  22.3424083
  56.6646993  24.2852753  16.1254083  56.9366993  25.1112753  16.1924083
  55.8016993  24.3602753  16.0294083  56.5776993  24.4182753  16.1204083
  64.6376993  21.4072753  30.7574083  64.1126993  21.8662753  31.2814083
  64.2766993  20.6122753  30.7514083  64.5066993  21.3572753  30.8334083
  50.1446993  20.2552753  22.6614083  50.1886993  20.5992753  21.8604083
  50.8996993  20.4922753  23.0284083  50.2626993  20.3412753  22.5974083
  68.1066993  33.1162753  22.7464083  68.3966993  33.3732753  21.9654083
  68.8016993  33.2122753  23.2654083  68.2526993  33.1682753  22.7074083
  63.1296993  24.9762753  30.8334083  63.2026993  25.0802753  31.6964083
  62.4956993  25.5342753  30.6124083  63.0466993  25.0742753  30.9284083
  65.3976993  25.2952753  29.1984083  65.7166993  26.0812753  29.4014083
  65.0276993  25.0252753  29.9414083  65.3906993  25.3712753  29.3384083
  64.7116993  31.7192753  14.7284083  65.0456993  30.9132753  14.7634083
  63.9566993  31.6472753  15.1584083  64.6496993  31.5892753  14.7974083
  65.1936993  23.5532753  20.3874083  64.4486993  23.2302753  20.7054083
  65.1956993  24.3792753  20.6674083  65.0836993  23.6272753  20.4754083
  68.0956993  25.8372753  31.9334083  68.0436993  25.4962753  31.1324083
  68.8326993  26.3042753  31.9114083  68.1966993  25.8562753  31.8114083
  67.6336993  29.5132753  28.1394083  68.2616993  28.9642753  27.8834083
  67.5726993  30.0782753  27.4774083  67.7176993  29.5162753  28.0034083
  62.0856993  29.5942753  14.1314083  62.7696993  29.0802753  13.9624083
  61.6686993  29.6402753  13.3664083  62.1246993  29.5252753  13.9934083
  56.7676993  30.7442753  25.4354083  56.4696993  31.3362753  26.0024083
  56.8226993  31.1862753  24.6864083  56.7316993  30.8972753  25.4084083
  64.1056993  19.8832753  27.8484083  64.8496993  20.3352753  27.7854083
  63.5396993  20.3532753  27.3794083  64.1326993  20.0202753  27.7704083
  59.2836993  27.1672753  24.9264083  59.7596993  27.5412753  25.5544083
  58.4606993  27.3012753  25.1854083  59.2326993  27.2422753  25.0574083
  55.9936993  22.7702753  27.6674083  56.1546993  22.0262753  28.0944083
  55.9486993  22.5212753  26.8324083  56.0106993  22.6232753  27.6074083
  58.5476993  34.5602753  20.1544083  59.0936993  35.2392753  20.2084083
  58.1976993  34.6422753  19.3594083  58.5766993  34.6732753  20.0444083
  65.3906993  17.8632753  25.5184083  65.1106993  18.6882753  25.4744083
  66.1066993  17.9162753  26.0144083  65.4556993  17.9932753  25.5854083
  57.7456993  18.5782753  27.5474083  58.4506993  18.8982753  27.1454083
  57.9866993  17.7712753  27.7744083  57.8846993  18.5062753  27.5214083
  61.0396993  29.4222753  30.5324083  61.7966993  29.7082753  30.2064083
  60.4926993  29.4742753  29.8544083  61.0706993  29.4722753  30.3834083
  64.9486993  31.9722753  29.0364083  65.2946993  32.2422753  29.7904083
  65.2426993  32.5542753  28.4564083  65.0436993  32.0982753  29.0624083
  66.8116993  24.1182753  14.3754083  67.1896993  24.7952753  13.9754083
  65.9696993  24.3422753  14.4064083  66.7426993  24.2512753  14.3204083
  58.3246993  27.5642753  13.4584083  57.5196993  27.3872753  13.1734083
  58.2916993  28.4152753  13.6504083  58.2006993  27.6632753  13.4454083
  54.2546993  23.6312753  23.6084083  54.6946993  23.5282753  22.8624083
  54.7996993  23.3182753  24.2134083  54.3996993  23.5702753  23.5874083
  62.2706993  22.7332753  29.2004083  61.6226993  23.2032753  29.5484083
  62.8356993  22.6442753  29.8594083  62.2586993  22.7892753  29.3494083
  61.9586993  24.2702753  25.4984083  62.2606993  24.6902753  26.2014083
  61.9946993  23.4302753  25.7304083  62.0086993  24.2082753  25.6364083
  64.5066993  23.7172753  17.7504083  64.7136993  23.5162753  18.5744083
  65.2626993  23.9852753  17.4084083  64.6486993  23.7272753  17.8214083
  57.8016993  18.6162753  23.6554083  56.9756993  18.4672753  23.8924083
  57.7616993  18.6512753  22.7844083  57.6736993  18.5992753  23.5614083
  65.5286993  19.8002753  19.2244083  64.8146993  19.3292753  19.3954083
  65.3666993  20.1412753  18.4384083  65.3996993  19.7812753  19.1334083
  65.9716993  27.7442753  17.6044083  66.4476993  27.0152753  17.5564083
  65.1506993  27.4582753  17.5284083  65.9206993  27.5942753  17.5854083
  59.4426993  29.6562753  28.4434083  58.6476993  29.5922753  28.7944083
  59.5136993  30.5032753  28.2484083  59.3356993  29.7712753  28.4664083
  50.3666993  19.0142753  29.6904083  50.2266993  19.8092753  29.3594083
  49.5806993  18.7712753  29.9794083  50.2296993  19.0962753  29.6844083
  53.4306993  21.7582753  16.9154083  53.5566993  21.4292753  16.1174083
  52.6186993  21.5092753  17.1144083  53.3296993  21.6732753  16.8274083
  62.1876993  28.9112753  19.9594083  62.2636993  29.2522753  20.7584083
  62.3566993  28.0642753  20.0804083  62.2236993  28.8362753  20.0954083
  59.7096993  28.1852753  19.5244083  59.4116993  27.8702753  20.2814083
  60.4046993  28.6582753  19.7594083  59.7686993  28.2082753  19.6714083
  59.9316993  32.3032753  27.5514083  60.6186993  32.1892753  28.0764083
  60.0656993  33.0942753  27.2074083  60.0526993  32.4032753  27.5784083
  68.1076993  24.9122753  29.3624083  67.2526993  24.7902753  29.4884083
  68.2606993  24.5172753  28.5994083  68.0036993  24.8352753  29.2684083
  62.6206993  25.5772753  27.9384083  62.3656993  24.8582753  28.3604083
  63.4416993  25.6932753  28.2084083  62.7046993  25.4882753  28.0404083
  60.5546993  26.7672753  31.1254083  60.8776993  27.4532753  30.6934083
  59.8506993  27.0902753  31.5274083  60.4976993  26.9162753  31.1204083
  63.6386993  35.1412753  22.0544083  63.1876993  35.7842753  22.4334083
  64.3466993  35.0622753  22.5594083  63.6766993  35.2242753  22.1854083
  60.3396993  30.2312753  24.9844083  59.6456993  30.6332753  25.3274083
  61.0166993  30.6642753  25.3234083  60.3366993  30.3542753  25.0854083
  65.7166993  32.8242753  31.5644083  66.4926993  32.4342753  31.6474083
  65.2476993  32.4882753  32.2194083  65.7616993  32.7172753  31.6734083
  66.7416993  24.8572753  17.0464083  66.8446993  24.7992753  16.1824083
  67.4826993  24.5252753  17.3644083  66.8666993  24.8002753  16.9654083
  60.6616993  31.8222753  18.1534083  60.4566993  32.6552753  17.9944083
  59.8866993  31.4402753  18.2754083  60.5166993  31.8892753  18.1484083
  65.8436993  25.0032753  26.4024083  65.8416993  24.1402753  26.5264083
  65.9106993  25.3272753  27.2094083  65.8536993  24.9232753  26.5394083
  52.0356993  23.3792753  13.4484083  51.3636993  23.3932753  14.0044083
  52.1306993  22.5312753  13.2644083  51.9506993  23.2562753  13.5034083
  61.7226993  19.8032753  30.1844083  61.8146993  20.5152753  30.6784083
  61.0856993  19.3582753  30.5814083  61.6416993  19.8422753  30.3164083
  60.7166993  19.9932753  21.0384083  60.0166993  20.5112753  20.9824083
  60.7546993  19.6132753  20.2544083  60.6186993  20.0142753  20.9144083
  56.0236993  32.0842753  14.5624083  56.4646993  32.1642753  15.3104083
  55.2186993  31.8682753  14.8204083  55.9696993  32.0642753  14.7114083
  64.3146993  20.5092753  23.8384083  65.1696993  20.6082753  23.9834083
  63.9456993  21.0622753  24.4034083  64.3866993  20.6062753  23.9434083
  64.6186993  25.7892753  22.3294083  65.2846993  26.3302753  22.4894083
  64.2736993  26.1002753  21.5904083  64.6656993  25.9152753  22.2444083
  64.9316993  33.8552753  18.1364083  64.7576993  33.2012753  18.6864083
  65.6446993  33.5842753  17.7134083  65.0116993  33.7182753  18.1554083
  53.3526993  31.1542753  15.1634083  53.1086993  30.8472753  15.9434083
  53.3196993  30.4512753  14.6474083  53.3116993  31.0052753  15.2024083
  56.1716993  29.3992753  13.9064083  55.3536993  29.1312753  14.0464083
  56.1436993  30.2512753  14.0914083  56.0466993  29.4862753  13.9544083
  55.7716993  19.7122753  25.6654083  54.9076993  19.7962753  25.7454083
  55.9916993  19.1982753  26.3344083  55.6766993  19.6492753  25.7764083
  67.7896993  18.3472753  26.9944083  67.7376993  18.3032753  27.8644083
  68.4766993  17.8442753  26.8044083  67.8836993  18.2672753  27.0944083
  59.8746993  20.4602753  24.0394083  59.1376993  20.0062753  24.1524083
  60.4456993  20.0582753  24.5624083  59.8496993  20.3332753  24.1334083
  62.6066993  31.3082753  25.8274083  62.8126993  31.6092753  26.6194083
  62.5456993  32.0302753  25.3424083  62.6276993  31.4592753  25.8724083
  62.1406993  35.5222753  30.0734083  61.3876993  35.5042753  29.6324083
  62.3086993  36.3742753  30.1574083  62.0546993  35.6452753  30.0204083
  58.1736993  18.0412753  13.8704083  58.2516993  18.2882753  13.0374083
  57.4306993  18.4182753  14.1284083  58.0756993  18.1332753  13.7854083
  67.4186993  29.9472753  25.2854083  67.3866993  29.0852753  25.1504083
  66.7256993  30.2492753  24.8514083  67.3116993  29.8642753  25.2014083
  65.5236993  33.2072753  24.0824083  66.0506993  33.1242753  23.3914083
  65.1326993  32.4292753  24.1364083  65.5436993  33.0802753  23.9884083
  52.9916993  19.7952753  26.3134083  52.6486993  19.0282753  26.0794083
  52.2966993  20.3192753  26.3774083  52.8386993  19.7592753  26.2884083
  62.0376993  18.6512753  23.2904083  62.7076993  19.1952753  23.4174083
  61.5346993  19.0752753  22.7174083  62.0626993  18.7942753  23.2244083
  61.3966993  24.4592753  20.7834083  61.9476993  23.8522753  21.0834083
  60.9716993  24.7222753  21.4984083  61.4156993  24.4082753  20.9324083
  51.6446993  23.1092753  20.2694083  51.2766993  23.4112753  21.0004083
  52.1786993  22.4802753  20.5534083  51.6686993  23.0612753  20.4194083
  63.3666993  26.2902753  17.3454083  63.4346993  25.4402753  17.5264083
  62.5436993  26.3762753  17.0674083  63.2546993  26.1772753  17.3314083
  57.2856993  27.1812753  16.2834083  57.3856993  27.3202753  15.4284083
  58.1036993  27.1212753  16.5794083  57.4206993  27.1922753  16.2004083
  66.4456993  35.2452753  13.7634083  67.0826993  35.1112753  14.3444083
  66.1046993  34.4512753  13.6464083  66.4896993  35.1082753  13.8314083
  66.6406993  27.6632753  30.4964083  67.2746993  27.4932753  31.0704083
  67.0576993  28.0662753  29.8444083  66.7956993  27.6982753  30.4854083
  62.5206993  31.5102753  16.0854083  62.2696993  31.3822753  16.9114083
  62.2036993  30.8152753  15.6644083  62.4366993  31.3892753  16.1454083
  67.2656993  22.2272753  31.2344083  67.0696993  22.8712753  31.7894083
  66.5436993  21.7372753  31.2264083  67.1306993  22.2502753  31.3154083
  67.1646993  23.1682753  24.2054083  66.3316993  23.4182753  24.1334083
  67.1086993  22.3282753  24.4344083  67.0336993  23.0812753  24.2284083
  56.4246993  20.1562753  29.3994083  56.6586993  19.5802753  28.7864083
  55.5826993  19.9752753  29.5404083  56.3346993  20.0442753  29.3294083
  64.0516993  27.7742753  31.8514083  64.9226993  27.7382753  31.8154083
  63.8326993  28.1942753  31.1194083  64.1486993  27.8302753  31.7384083
  59.4066993  29.7182753  15.5154083  60.1236993  29.3712753  15.1594083
  59.3726993  30.5182753  15.1674083  59.5076993  29.7852753  15.4114083
  60.6246993  25.2752753   4.4251673  60.1006993  25.8712753   4.7881673
  61.0216993  24.9072753   5.1091673  60.6056993  25.3092753   4.5801673
  50.4336993  32.1502753   6.1361673  50.5626993  31.8702753   6.9521673
  49.8236993  31.6092753   5.8271673  50.3626993  32.0292753   6.2111673
  57.0076993  29.6752753  11.2031673  56.7716993  29.6722753  12.0431673
  56.2596993  29.5272753  10.7791673  56.8616993  29.6522753  11.2641673
  56.3876993  22.2812753   5.6851673  57.0656993  22.2992753   5.1361673
  56.3426993  21.4452753   5.9301673  56.4806993  22.1602753   5.6401673
  56.9896993  32.8672753   8.4661673  57.1276993  33.6272753   8.0591673
  57.7806993  32.5022753   8.4931673  57.1266993  32.9262753   8.4101673
  58.0846993  30.7522753   2.9711673  58.4326993  29.9532753   3.0011673
  58.7496993  31.2562753   2.7161673  58.2346993  30.7082753   2.9381673
  60.1096993  24.3322753  10.5211673  59.2616993  24.2332753  10.3431673
  60.1386993  25.0772753  10.9751673  59.9886993  24.4282753  10.5621673
  64.6676993  17.2922753   9.6351673  64.5096993  18.0612753   9.2531673
  63.8956993  17.0722753   9.9791673  64.5296993  17.3732753   9.6301673
  50.3356993  24.4322753   3.3511673  50.0796993  25.2632753   3.2761673
  49.6716993  24.0492753   3.7681673  50.1996993  24.4982753   3.4021673
  53.3646993  19.2492753   3.8421673  52.8436993  18.6212753   3.5341673
  53.9556993  18.8122753   4.3131673  53.3756993  19.0912753   3.8661673
  56.6706993  21.3822753  13.1401673  56.7876993  20.9282753  12.4041673
  56.9586993  22.1802753  12.9371673  56.7306993  21.4332753  13.0011673
  62.8356993  34.6762753   6.5481673  63.5796993  35.1322753   6.5381673
  62.7146993  34.4622753   5.7111673  62.9276993  34.7122753   6.4231673
  52.4036993  20.9792753  12.1241673  51.6256993  20.5892753  12.0521673
  52.8946993  20.5672753  11.5331673  52.3606993  20.8602753  12.0261673
  52.6086993  31.2992753   2.6821673  53.0316993  30.9432753   2.0081673
  52.9326993  30.8772753   3.3741673  52.7186993  31.1842753   2.6851673
  55.8396993  34.1512753   1.9781673  56.6836993  34.2552753   1.7831673
  55.5426993  34.9692753   2.0461673  55.9206993  34.2872753   1.9591673
  59.0526993  18.6222753  11.2921673  59.2306993  17.8132753  11.0171673
  58.9096993  19.0632753  10.5531673  59.0576993  18.5682753  11.1421673
  54.8376993  35.3702753   7.7181673  55.1296993  35.3032753   8.5381673
  54.2116993  34.7652753   7.6731673  54.7886993  35.2712753   7.8331673
  67.1986993  20.2292753   5.8131673  67.9556993  20.3012753   5.3851673
  67.2616993  19.4562753   6.2121673  67.3196993  20.1262753   5.8081673
  49.7516993  21.5272753   9.7101673  49.7476993  22.1142753  10.3561673
  50.3456993  21.8392753   9.1531673  49.8386993  21.6602753   9.7231673
  62.0896993  31.8612753  10.2521673  62.0556993  32.2432753  11.0361673
  62.9436993  31.8192753  10.0811673  62.2106993  31.9112753  10.3431673
  52.8306993  33.5322753   6.8401673  52.1326993  33.0242753   6.9661673
  53.0906993  33.3272753   6.0321673  52.7656993  33.4272753   6.7391673
  60.5416993  35.0252753   7.7501673  61.3096993  34.9452753   7.3441673
  59.9586993  34.9042753   7.1121673  60.5686993  34.9952753   7.5961673
  54.1916993  32.3832753   9.4071673  55.0326993  32.4462753   9.1851673
  54.1546993  32.7802753  10.1831673  54.3106993  32.4512753   9.4891673
  56.1546993  27.8942753   4.1561673  56.3266993  27.6842753   4.9851673
  55.4996993  27.3602753   3.9401673  56.0836993  27.7842753   4.2471673
  62.3826993  21.8082753   7.6711673  62.2876993  22.1272753   8.4771673
  61.7896993  21.1692753   7.6331673  62.2806993  21.7602753   7.7851673
  56.9046993  27.8322753   6.7461673  56.9576993  28.6792753   6.9481673
  56.6196993  27.4622753   7.4831673  56.8706993  27.9022753   6.8841673
  63.0816993  28.5272753   5.8761673  62.5676993  28.1152753   6.4471673
  62.9556993  29.3712753   6.0571673  62.9876993  28.5912753   5.9871673
  49.7256993  32.2032753  12.9571673  50.4816993  32.5522753  13.2151673
  49.9026993  31.3502753  12.9001673  49.8636993  32.1282753  12.9871673
  66.1026993  21.9882753   8.8151673  66.8746993  21.7632753   9.1521673
  65.6276993  22.2052753   9.5151673  66.1466993  21.9872753   8.9681673
  52.2376993  35.4232753   2.5711673  51.5646993  34.9252753   2.3261673
  52.6406993  35.6082753   1.8201673  52.1976993  35.3772753   2.4241673
  51.7876993  22.3732753   4.8671673  52.6306993  22.5932753   4.8241673
  51.3986993  22.9462753   4.3361673  51.8546993  22.4902753   4.7821673
  68.5686993  33.4752753  10.2571673  67.8866993  33.7852753   9.8101673
  68.1996993  33.0172753  10.9021673  68.4126993  33.4532753  10.2861673
  49.9946993  30.3482753   2.8891673  49.3276993  30.8362753   3.1651673
  50.6746993  30.8932753   2.9181673  49.9966993  30.5002753   2.9341673
  57.6416993  24.0582753  12.9851673  57.1576993  24.6352753  13.4271673
  57.6136993  24.3532753  12.1641673  57.5656993  24.1872753  12.9291673
  68.7396993  24.7422753   7.5971673  68.9546993  23.9422753   7.3211673
  67.8896993  24.8022753   7.4081673  68.6456993  24.6332753   7.5281673
  54.4366993  30.1962753   4.6561673  54.9036993  30.4852753   5.3341673
  55.0086993  29.7182753   4.2021673  54.5906993  30.1682753   4.6891673
  62.8726993  22.2102753   2.3931673  63.2166993  22.3622753   3.1801673
  62.4196993  21.4722753   2.5061673  62.8566993  22.1232753   2.5261673
  51.0026993  27.8662753   3.2001673  51.4336993  27.7372753   2.4531673
  50.7976993  28.7142753   3.1741673  51.0356993  27.9722753   3.0861673
  66.4026993  33.8572753   8.3471673  65.7316993  34.3712753   8.5651673
  66.4656993  33.9572753   7.4831673  66.3126993  33.9482753   8.2521673
  53.2166993  24.8652753  11.3441673  52.6806993  24.3592753  11.8121673
  53.2366993  24.4752753  10.5641673  53.1396993  24.7322753  11.2981673
  53.8686993  26.0922753   3.0831673  53.0876993  26.0332753   2.7001673
  53.9406993  25.3402753   3.5201673  53.7636993  25.9732753   3.0911673
  54.2986993  25.8292753   6.5511673  54.3236993  25.1542753   6.0001673
  53.6526993  26.3252753   6.2391673  54.2076993  25.8022753   6.4241673
  64.1936993  23.5422753   4.9471673  63.5316993  23.8702753   5.4101673
  64.3806993  24.1762753   4.3781673  64.1236993  23.6842753   4.9311673
  58.3986993  34.6062753   5.9431673  58.1216993  33.9652753   5.4201673
  58.1906993  35.3322753   5.5051673  58.3276993  34.6192753   5.8011673
  60.8386993  19.4482753   8.3761673  60.9876993  18.6232753   8.1331673
  61.2176993  19.5032753   9.1601673  60.9166993  19.3342753   8.4561673
  52.0976993  27.1842753  12.1101673  52.0606993  27.6852753  11.3961673
  52.4286993  26.4322753  11.8151673  52.1406993  27.1462753  11.9611673
  63.7006993  29.3892753  10.3681673  64.1846993  30.1072753  10.4661673
  64.0946993  28.9622753   9.7171673  63.8306993  29.4322753  10.2861673
  57.9966993  32.2342753  11.5451673  58.3506993  32.0562753  12.3221673
  57.5606993  31.5052753  11.3461673  57.9846993  32.1002753  11.6311673
  58.9686993  22.9812753   4.1831673  59.4486993  23.6802753   4.3911673
  59.3416993  22.3342753   4.6341673  59.0946993  22.9892753   4.2801673
  62.1746993  33.0862753   4.2821673  61.5716993  32.7902753   3.7251673
  62.7196993  33.5382753   3.7731673  62.1656993  33.1092753   4.1241673
  62.1876993  29.9372753   3.6821673  61.3906993  30.1612753   3.9561673
  62.4456993  29.3432753   4.2671673  62.1076993  29.8822753   3.8091673
  65.4476993  27.9352753   8.5281673  65.5026993  28.0602753   7.6661673
  66.2006993  28.2552753   8.8301673  65.5666993  28.0002753   8.4451673
  61.6386993  33.2842753  12.8051673  61.8026993  33.5672753  13.6141673
  61.9016993  33.9452753  12.3001673  61.7016993  33.4242753  12.8501673
  66.4796993  18.2332753  11.5151673  65.8426993  17.8332753  11.0731673
  66.5056993  17.8022753  12.2731673  66.3896993  18.1112753  11.5611673
  61.1786993  27.7412753   8.1281673  61.0236993  28.3512753   8.7321673
  61.7126993  27.1832753   8.5341673  61.2346993  27.7492753   8.2771673
  64.7886993  30.4702753   4.6551673  64.3096993  30.7682753   3.9891673
  64.4326993  29.6942753   4.8331673  64.6656993  30.3992753   4.5831673
  58.7856993  28.1882753   3.2171673  57.9386993  27.9942753   3.2981673
  59.1096993  28.0232753   4.0101673  58.7076993  28.1352753   3.3461673
  52.6336993  27.8812753   5.5331673  53.3556993  28.3692753   5.4961673
  52.3636993  27.8512753   4.7041673  52.7006993  27.9492753   5.4051673
  55.8636993  23.0522753   2.2681673  56.7096993  22.8622753   2.3661673
  55.4936993  22.2752753   2.1301673  55.9336993  22.9092753   2.2621673
  65.7196993  27.4122753   5.7741673  65.7126993  26.6362753   6.1721673
  64.8786993  27.6462753   5.7671673  65.5946993  27.3322753   5.8321673
  52.0286993  28.9332753   9.8111673  51.6076993  28.4152753   9.2501673
  51.6766993  29.7192753   9.6681673  51.9146993  28.9732753   9.7071673
  66.9756993  27.4832753   3.2111673  66.6896993  27.8842753   3.9311673
  67.8356993  27.4212753   3.3381673  67.0606993  27.5332753   3.3361673
  64.6376993  21.4072753  11.7511673  64.1126993  21.8662753  12.2751673
  64.2766993  20.6122753  11.7451673  64.5066993  21.3572753  11.8271673
  50.1446993  20.2552753   3.6551673  50.1886993  20.5992753   2.8541673
  50.8996993  20.4922753   4.0221673  50.2626993  20.3412753   3.5911673
  68.1066993  33.1162753   3.7401673  68.3966993  33.3732753   2.9591673
  68.8016993  33.2122753   4.2591673  68.2526993  33.1682753   3.7011673
  63.1296993  24.9762753  11.8271673  63.2026993  25.0802753  12.6901673
  62.4956993  25.5342753  11.6061673  63.0466993  25.0742753  11.9221673
  65.3976993  25.2952753  10.1921673  65.7166993  26.0812753  10.3951673
  65.0276993  25.0252753  10.9351673  65.3906993  25.3712753  10.3321673
  68.0956993  25.8372753  12.9271673  68.0436993  25.4962753  12.1261673
  68.8326993  26.3042753  12.9051673  68.1966993  25.8562753  12.8051673
  67.6336993  29.5132753   9.1331673  68.2616993  28.9642753   8.8771673
  67.5726993  30.0782753   8.4711673  67.7176993  29.5162753   8.9971673
  56.7676993  30.7442753   6.4291673  56.4696993  31.3362753   6.9961673
  56.8226993  31.1862753   5.6801673  56.7316993  30.8972753   6.4021673
  54.7466993  29.6942753   9.8271673  53.9406993  29.4042753   9.9941673
  54.6576993  30.5622753   9.8331673  54.6146993  29.7792753   9.8521673
  64.1056993  19.8832753   8.8421673  64.8496993  20.3352753   8.7791673
  63.5396993  20.3532753   8.3731673  64.1326993  20.0202753   8.7641673
  59.2836993  27.1672753   5.9201673  59.7596993  27.5412753   6.5481673
  58.4606993  27.3012753   6.1791673  59.2326993  27.2422753   6.0511673
  55.9936993  22.7702753   8.6611673  56.1546993  22.0262753   9.0881673
  55.9486993  22.5212753   7.8261673  56.0106993  22.6232753   8.6011673
  65.3906993  17.8632753   6.5121673  65.1106993  18.6882753   6.4681673
  66.1066993  17.9162753   7.0081673  65.4556993  17.9932753   6.5791673
  57.7456993  18.5782753   8.5411673  58.4506993  18.8982753   8.1391673
  57.9866993  17.7712753   8.7681673  57.8846993  18.5062753   8.5151673
  56.7306993  32.7882753   4.5371673  56.1066993  33.3702753   4.3551673
  56.9786993  32.5022753   3.7511673  56.6746993  32.8322753   4.3941673
  61.0396993  29.4222753  11.5261673  61.7966993  29.7082753  11.2001673
  60.4926993  29.4742753  10.8481673  61.0706993  29.4722753  11.3771673
  64.9486993  31.9722753  10.0301673  65.2946993  32.2422753  10.7841673
  65.2426993  32.5542753   9.4501673  65.0436993  32.0982753  10.0561673
  54.2546993  23.6312753   4.6021673  54.6946993  23.5282753   3.8561673
  54.7996993  23.3182753   5.2071673  54.3996993  23.5702753   4.5811673
  62.2706993  22.7332753  10.1941673  61.6226993  23.2032753  10.5421673
  62.8356993  22.6442753  10.8531673  62.2586993  22.7892753  10.3431673
  61.9586993  24.2702753   6.4921673  62.2606993  24.6902753   7.1951673
  61.9946993  23.4302753   6.7241673  62.0086993  24.2082753   6.6301673
  59.3836993  34.4372753  10.4171673  59.8616993  33.8372753  10.0011673
  59.0326993  33.9942753  11.0821673  59.4026993  34.2832753  10.4541673
  57.8016993  18.6162753   4.6491673  56.9756993  18.4672753   4.8861673
  57.7616993  18.6512753   3.7781673  57.6736993  18.5992753   4.5551673
  59.4426993  29.6562753   9.4371673  58.6476993  29.5922753   9.7881673
  59.5136993  30.5032753   9.2421673  59.3356993  29.7712753   9.4601673
  50.3666993  19.0142753  10.6841673  50.2266993  19.8092753  10.3531673
  49.5806993  18.7712753  10.9731673  50.2296993  19.0962753  10.6781673
  55.2726993  35.8632753   4.7541673  55.2836993  35.9222753   5.6241673
  54.8476993  35.1162753   4.6041673  55.2116993  35.7612753   4.8601673
  59.9316993  32.3032753   8.5451673  60.6186993  32.1892753   9.0701673
  60.0656993  33.0942753   8.2011673  60.0526993  32.4032753   8.5721673
  68.1076993  24.9122753  10.3561673  67.2526993  24.7902753  10.4821673
  68.2606993  24.5172753   9.5931673  68.0036993  24.8352753  10.2621673
  62.6206993  25.5772753   8.9321673  62.3656993  24.8582753   9.3541673
  63.4416993  25.6932753   9.2021673  62.7046993  25.4882753   9.0341673
  52.0366993  35.3612753  10.1961673  51.3826993  34.7922753  10.2941673
  51.6616993  36.1342753  10.3471673  51.8846993  35.3912753  10.2331673
  60.5546993  26.7672753  12.1191673  60.8776993  27.4532753  11.6871673
  59.8506993  27.0902753  12.5211673  60.4976993  26.9162753  12.1141673
  63.6386993  35.1412753   3.0481673  63.1876993  35.7842753   3.4271673
  64.3466993  35.0622753   3.5531673  63.6766993  35.2242753   3.1791673
  60.3396993  30.2312753   5.9781673  59.6456993  30.6332753   6.3211673
  61.0166993  30.6642753   6.3171673  60.3366993  30.3542753   6.0791673
  65.7166993  32.8242753  12.5581673  66.4926993  32.4342753  12.6411673
  65.2476993  32.4882753  13.2131673  65.7616993  32.7172753  12.6671673
  53.4076993  23.7692753   8.3251673  53.7826993  24.3882753   7.8381673
  54.0816993  23.2952753   8.6101673  53.5626993  23.7912753   8.2951673
  51.1826993  22.2172753   7.6001673  51.2596993  22.0482753   6.7471673
  51.9286993  22.6232753   7.7971673  51.3036993  22.2522753   7.5031673
  53.7366993  19.6272753  10.0111673  53.6556993  18.7832753  10.2171673
  53.4226993  19.6712753   9.1981673  53.6786993  19.5092753   9.9211673
  65.8436993  25.0032753   7.3961673  65.8416993  24.1402753   7.5201673
  65.9106993  25.3272753   8.2031673  65.8536993  24.9232753   7.5331673
  50.5796993  27.4432753   7.8241673  50.8996993  27.6622753   7.0431673
  50.4796993  26.5782753   7.7691673  50.6116993  27.3482753   7.7011673
  61.7226993  19.8032753  11.1781673  61.8146993  20.5152753  11.6721673
  61.0856993  19.3582753  11.5751673  61.6416993  19.8422753  11.3101673
  64.3146993  20.5092753   4.8321673  65.1696993  20.6082753   4.9771673
  63.9456993  21.0622753   5.3971673  64.3866993  20.6062753   4.9371673
  55.3426993  26.7352753   9.2091673  54.9466993  27.5092753   9.2841673
  54.9366993  26.3622753   8.5331673  55.2246993  26.7942753   9.1201673
  64.6186993  25.7892753   3.3231673  65.2846993  26.3302753   3.4831673
  64.2736993  26.1002753   2.5841673  64.6656993  25.9152753   3.2381673
  55.7716993  19.7122753   6.6591673  54.9076993  19.7962753   6.7391673
  55.9916993  19.1982753   7.3281673  55.6766993  19.6492753   6.7701673
  67.7896993  18.3472753   7.9881673  67.7376993  18.3032753   8.8581673
  68.4766993  17.8442753   7.7981673  67.8836993  18.2672753   8.0881673
  59.8746993  20.4602753   5.0331673  59.1376993  20.0062753   5.1461673
  60.4456993  20.0582753   5.5561673  59.8496993  20.3332753   5.1271673
  62.6066993  31.3082753   6.8211673  62.8126993  31.6092753   7.6131673
  62.5456993  32.0302753   6.3361673  62.6276993  31.4592753   6.8661673
  62.1406993  35.5222753  11.0671673  61.3876993  35.5042753  10.6261673
  62.3086993  36.3742753  11.1511673  62.0546993  35.6452753  11.0141673
  57.3776993  24.7892753  10.2371673  57.0556993  24.2132753   9.6671673
  57.0186993  25.5442753   9.9911673  57.2776993  24.8152753  10.1171673
  67.4186993  29.9472753   6.2791673  67.3866993  29.0852753   6.1441673
  66.7256993  30.2492753   5.8451673  67.3116993  29.8642753   6.1951673
  55.8126993  35.1452753  10.4851673  55.8536993  35.2712753  11.3481673
  56.4636993  34.5852753  10.3291673  55.9146993  35.0812753  10.5901673
  65.5236993  33.2072753   5.0761673  66.0506993  33.1242753   4.3851673
  65.1326993  32.4292753   5.1301673  65.5436993  33.0802753   4.9821673
  52.9916993  19.7952753   7.3071673  52.6486993  19.0282753   7.0731673
  52.2966993  20.3192753   7.3711673  52.8386993  19.7592753   7.2821673
  62.0376993  18.6512753   4.2841673  62.7076993  19.1952753   4.4111673
  61.5346993  19.0752753   3.7111673  62.0626993  18.7942753   4.2181673
  53.4056993  33.5282753  11.8451673  54.0006993  33.9592753  12.3171673
  53.0416993  34.1522753  11.3561673  53.4396993  33.6842753  11.8421673
  61.3966993  24.4592753   1.7771673  61.9476993  23.8522753   2.0771673
  60.9716993  24.7222753   2.4921673  61.4156993  24.4082753   1.9261673
  51.3326993  31.5172753   8.7741673  50.7586993  31.9332753   9.2831673
  52.0656993  31.9822753   8.8691673  51.3566993  31.6472753   8.8631673
  66.6406993  27.6632753  11.4901673  67.2746993  27.4932753  12.0641673
  67.0576993  28.0662753  10.8381673  66.7956993  27.6982753  11.4791673
  67.2656993  22.2272753  12.2281673  67.0696993  22.8712753  12.7831673
  66.5436993  21.7372753  12.2201673  67.1306993  22.2502753  12.3091673
  67.1646993  23.1682753   5.1991673  66.3316993  23.4182753   5.1271673
  67.1086993  22.3282753   5.4281673  67.0336993  23.0812753   5.2221673
  56.4246993  20.1562753  10.3931673  56.6586993  19.5802753   9.7801673
  55.5826993  19.9752753  10.5341673  56.3346993  20.0442753  10.3231673
  64.0516993  27.7742753  12.8451673  64.9226993  27.7382753  12.8091673
  63.8326993  28.1942753  12.1131673  64.1486993  27.8302753  12.7321673
  53.8056993  33.5992753   4.0261673  53.7266993  32.7892753   3.7101673
  53.3616993  34.0862753   3.4541673  53.7286993  33.5512753   3.8951673
  51.3776993  35.8432753   7.6071673  51.8706993  35.7872753   8.3251673
  51.5656993  35.1102753   7.1721673  51.4786993  35.7262753   7.6491673
  60.6246993   6.7971673  80.4501313  60.1006993   7.3931673  80.8131313
  61.0216993   6.4291673  81.1341313  60.6056993   6.8311673  80.6051313
  50.4936993  10.9371673  75.9061313  50.0526993  11.0551673  76.6491313
  50.2106993  10.1621673  75.6211313  50.3866993  10.8401673  75.9741313
  66.7686993  14.2381673  73.4211313  67.4696993  13.7191673  73.4171313
  66.1816993  13.7931673  72.9521313  66.7856993  14.0951673  73.3511313
  50.2366993   4.7291673  72.4131313  49.4586993   4.8911673  72.0531313
  50.2756993   3.8581673  72.4351313  50.1276993   4.6241673  72.3631313
  53.3756993   9.9921673  71.0851313  52.9836993   9.6211673  70.3991313
  53.2956993   9.3941673  71.7141313  53.3056993   9.8491673  71.0761313
  63.2956993   7.8641673  77.1261313  63.3756993   7.8681673  76.2571313
  62.7116993   7.2321673  77.2751313  63.2206993   7.7711673  77.0201313
  53.0026993  11.6331673  74.9851313  53.6106993  11.4631673  75.5881313
  52.2516993  11.4931673  75.4061313  52.9816993  11.5871673  75.1361313
  51.8936993  14.7241673  71.0621313  52.3606993  14.8081673  70.3301313
  52.3486993  14.1461673  71.5311313  52.0296993  14.6511673  71.0231313
  51.8796993   8.1931673  76.3631313  51.4176993   7.8011673  75.7361313
  52.5796993   7.6801673  76.4551313  51.9146993   8.0601673  76.2841313
  53.8806993   6.2931673  76.3861313  54.6976993   6.1061673  76.6291313
  53.4036993   5.6791673  76.7821313  53.9306993   6.1751673  76.4811313
  58.0846993  12.2741673  78.9961313  58.4326993  11.4751673  79.0261313
  58.7496993  12.7781673  78.7411313  58.2346993  12.2301673  78.9631313
  58.1416993  11.7231673  75.2071313  58.4726993  11.0791673  75.6931313
  58.3816993  11.5121673  74.3961313  58.2256993  11.5971673  75.1591313
  62.1296993   3.4551673  70.1741313  61.6796993   4.1361673  70.4811313
  62.2436993   2.9511673  70.8771313  62.0806993   3.4811673  70.3231313
  50.3356993   5.9541673  79.3761313  50.0796993   6.7851673  79.3011313
  49.6716993   5.5711673  79.7931313  50.1996993   6.0201673  79.4271313
  50.2456993  15.6641673  77.2761313  49.6536993  16.2221673  76.9631313
  50.6716993  15.3951673  76.5641313  50.2216993  15.7061673  77.1251313
  56.0856993  13.5081673  74.7561313  55.5066993  13.2331673  75.3481313
  56.7096993  12.8991673  74.7811313  56.0926993  13.3781673  74.8471313
  62.2286993  15.7961673  72.2781313  62.9556993  16.2681673  72.3801313
  62.4576993  15.0021673  72.5581313  62.3706993  15.7491673  72.3351313
  60.3966993  16.1881673  74.2681313  60.6106993  16.7151673  74.9301313
  61.1636993  16.0141673  73.8891313  60.5416993  16.2401673  74.3101313
  51.7906993  14.3341673  75.2071313  52.4466993  13.7591673  75.2221313
  52.1796993  15.0831673  74.9861313  51.9456993  14.3591673  75.1771313
  67.5236993   3.4281673  76.4691313  67.1776993   4.1061673  76.8951313
  66.8876993   2.8301673  76.4851313  67.3786993   3.4401673  76.5341313
  52.6086993  12.8211673  78.7071313  53.0316993  12.4651673  78.0331313
  52.9326993  12.3991673  79.3991313  52.7186993  12.7061673  78.7101313
  55.8396993  15.6731673  78.0031313  56.6836993  15.7771673  77.8081313
  55.5426993  16.4911673  78.0711313  55.9206993  15.8091673  77.9841313
  59.6466993   5.0701673  76.0901313  59.9336993   4.8381673  75.3001313
  60.3786993   5.1491673  76.5591313  59.7966993   5.0471673  76.0431313
  60.3686993   5.4091673  71.2111313  60.6496993   6.1971673  71.4601313
  59.5926993   5.5741673  70.8481313  60.2956993   5.5501673  71.1941313
  64.4096993  17.3831673  72.6781313  65.0746993  17.2351673  72.1331313
  64.7696993  17.3001673  73.4681313  64.5616993  17.3491673  72.7141313
  59.2276993  13.5801673  71.0271313  59.0466993  14.1251673  71.6841313
  59.9936993  13.8701673  70.7261313  59.3136993  13.7041673  71.0801313
  50.6886993   2.6441673  74.6501313  50.5746993   1.7801673  74.6811313
  50.2136993   2.9381673  75.3201313  50.6016993   2.5601673  74.7531313
  59.9926993   3.8521673  73.3951313  59.4846993   3.1901673  73.1411313
  60.0446993   4.3561673  72.6851313  59.9256993   3.8291673  73.2531313
  66.8186993  17.1501673  76.6761313  66.3636993  17.8671673  76.8771313
  66.2046993  16.5791673  76.4341313  66.6606993  17.1721673  76.6701313
  58.5906993   3.1601673  77.8081313  58.6646993   3.7281673  77.1501313
  58.7116993   3.6521673  78.5181313  58.6186993   3.3171673  77.8161313
  63.8156993  12.9951673  76.2201313  64.5166993  12.5131673  76.4091313
  63.1556993  12.4261673  76.2651313  63.8216993  12.8401673  76.2541313
  56.1546993   9.4161673  80.1811313  56.3266993   9.2061673  81.0101313
  55.4996993   8.8821673  79.9651313  56.0836993   9.3061673  80.2721313
  53.6466993   2.7931673  77.8101313  53.9186993   2.3631673  77.1021313
  53.4706993   2.1571673  78.3811313  53.6606993   2.6361673  77.7901313
  66.3346993  10.4881673  72.0281313  66.4536993  10.2011673  72.8431313
  67.1416993  10.5091673  71.6981313  66.4706993  10.4491673  72.1001313
  53.4706993  10.2201673  77.3591313  54.3216993  10.1401673  77.1861313
  53.1136993   9.5381673  76.9471313  53.5436993  10.1071673  77.2721313
  52.2376993  16.9451673  78.5961313  51.5646993  16.4471673  78.3511313
  52.6406993  17.1301673  77.8451313  52.1976993  16.8991673  78.4491313
  51.7876993   3.8951673  80.8921313  52.6306993   4.1151673  80.8491313
  51.3986993   4.4681673  80.3611313  51.8546993   4.0121673  80.8071313
  64.2296993   7.0251673  71.6131313  64.0096993   7.7561673  71.1911313
  63.7816993   7.0761673  72.3601313  64.1306993   7.1401673  71.6611313
  55.8386993  10.2271673  75.5941313  56.5516993  10.7221673  75.6841313
  56.0606993   9.6601673  74.9681313  55.9766993  10.2161673  75.5151313
  49.9946993  11.8701673  78.9141313  49.3276993  12.3581673  79.1901313
  50.6746993  12.4151673  78.9431313  49.9966993  12.0221673  78.9591313
  50.0606993   8.5541673  74.0171313  49.8756993   7.7151673  74.1691313
  50.7196993   8.5181673  73.4471313  50.1306993   8.4251673  73.9551313
  60.3616993  13.9301673  77.9211313  59.8386993  14.5641673  77.6281313
  60.6716993  13.5661673  77.1921313  60.3296993  13.9701673  77.7701313
  50.2326993  12.7181673  73.5921313  50.7846993  13.2871673  73.9561313
  50.0006993  12.2031673  74.2571313  50.2796993  12.7261673  73.7441313
  54.4366993  11.7181673  80.6811313  54.9036993  12.0071673  81.3591313
  55.0086993  11.2401673  80.2271313  54.5906993  11.6901673  80.7141313
  62.8726993   3.7321673  78.4181313  63.2166993   3.8841673  79.2051313
  62.4196993   2.9941673  78.5311313  62.8566993   3.6451673  78.5511313
  50.0626993  11.1671673  71.2201313  50.8186993  10.7351673  71.2781313
  50.0776993  11.6991673  71.9111313  50.1766993  11.1821673  71.3311313
  51.0026993   9.3881673  79.2251313  51.4336993   9.2591673  78.4781313
  50.7976993  10.2361673  79.1991313  51.0356993   9.4941673  79.1111313
  57.3486993   2.9521673  72.8751313  57.3466993   2.8351673  72.0101313
  57.1676993   3.8001673  72.9671313  57.3216993   3.0601673  72.7611313
  55.0866993  12.9041673  77.5071313  55.2126993  13.7471673  77.6941313
  55.7546993  12.5051673  77.9031313  55.2046993  12.9701673  77.5931313
  53.7016993   5.7841673  72.5091313  53.5736993   5.3361673  73.2471313
  53.1196993   5.4421673  71.9571313  53.5966993   5.6671673  72.5371313
  53.8686993   7.6141673  79.1081313  53.0876993   7.5551673  78.7251313
  53.9406993   6.8621673  79.5451313  53.7636993   7.4951673  79.1161313
  64.1936993   5.0641673  80.9721313  63.5316993   5.3921673  81.4351313
  64.3806993   5.6981673  80.4031313  64.1236993   5.2061673  80.9561313
  62.3866993   3.0331673  74.4831313  62.8766993   3.7501673  74.4061313
  61.5966993   3.2941673  74.2201313  62.3426993   3.1771673  74.4331313
  58.9686993   4.5031673  80.2081313  59.4486993   5.2021673  80.4161313
  59.3416993   3.8561673  80.6591313  59.0946993   4.5111673  80.3051313
  61.1576993   7.6721673  72.4821313  61.1496993   8.3941673  71.9921313
  60.5186993   7.8071673  73.0591313  61.0626993   7.7991673  72.4951313
  66.1296993  11.5421673  76.4631313  66.4856993  11.1921673  77.1781313
  66.1216993  10.8811673  75.8931313  66.1816993  11.3921673  76.4841313
  62.1746993  14.6081673  80.3071313  61.5716993  14.3121673  79.7501313
  62.7196993  15.0601673  79.7981313  62.1656993  14.6311673  80.1491313
  62.1876993  11.4591673  79.7071313  61.3906993  11.6831673  79.9811313
  62.4456993  10.8651673  80.2921313  62.1076993  11.4041673  79.8341313
  56.0796993  16.2711673  74.1551313  55.9326993  15.4951673  74.5261313
  56.7686993  16.1241673  73.6401313  56.1596993  16.1341673  74.1341313
  58.3716993  15.7871673  72.5571313  58.9936993  15.9501673  73.1471313
  58.4076993  16.4781673  72.0251313  58.4686993  15.9131673  72.5661313
  52.8726993   8.3211673  73.3861313  53.1966993   7.5421673  73.1641313
  53.5186993   8.6891673  73.8411313  53.0156993   8.2601673  73.4201313
  59.5626993   7.6631673  74.8111313  59.6216993   8.3131673  75.3901313
  59.3736993   6.9671673  75.3021313  59.5436993   7.6561673  74.9691313
  64.7886993  11.9921673  80.6801313  64.3096993  12.2901673  80.0141313
  64.4326993  11.2161673  80.8581313  64.6656993  11.9211673  80.6081313
  54.0586993   2.1801673  71.3231313  53.5476993   2.2331673  70.6171313
  54.8426993   2.4201673  71.0271313  54.0986993   2.2231673  71.1751313
  58.7856993   9.7101673  79.2421313  57.9386993   9.5161673  79.3231313
  59.1096993   9.5451673  80.0351313  58.7076993   9.6571673  79.3711313
  55.5376993  16.4401673  70.1281313  55.9766993  15.7431673  70.4161313
  55.7446993  17.0641673  70.7011313  55.6336993  16.4291673  70.2551313
  52.6336993   9.4031673  81.5581313  53.3556993   9.8911673  81.5211313
  52.3636993   9.3731673  80.7291313  52.7006993   9.4711673  81.4301313
  55.8636993   4.5741673  78.2931313  56.7096993   4.3841673  78.3911313
  55.4936993   3.7971673  78.1551313  55.9336993   4.4311673  78.2871313
  68.4806993  16.1581673  72.6201313  69.1746993  15.6911673  72.3721313
  67.9416993  15.5601673  72.9571313  68.5036993  16.0001673  72.6331313
  50.6846993   5.9121673  74.9481313  51.1736993   5.6201673  75.6091313
  50.8136993   5.3191673  74.3211313  50.7756993   5.7811673  74.9531313
  55.2096993   7.3461673  70.4341313  54.5996993   6.9411673  70.9081313
  54.8236993   7.4641673  69.6611313  55.0626993   7.3031673  70.3901313
  66.9756993   9.0051673  79.2361313  66.6896993   9.4061673  79.9561313
  67.8356993   8.9431673  79.3631313  67.0606993   9.0551673  79.3611313
  56.6646993   5.8071673  73.1441313  56.9366993   6.6331673  73.2111313
  55.8016993   5.8821673  73.0481313  56.5776993   5.9401673  73.1391313
  50.1446993   1.7771673  79.6801313  50.1886993   2.1211673  78.8791313
  50.8996993   2.0141673  80.0471313  50.2626993   1.8631673  79.6161313
  68.1066993  14.6381673  79.7651313  68.3966993  14.8951673  78.9841313
  68.8016993  14.7341673  80.2841313  68.2526993  14.6901673  79.7261313
  64.7116993  13.2411673  71.7471313  65.0456993  12.4351673  71.7821313
  63.9566993  13.1691673  72.1771313  64.6496993  13.1111673  71.8161313
  65.1936993   5.0751673  77.4061313  64.4486993   4.7521673  77.7241313
  65.1956993   5.9011673  77.6861313  65.0836993   5.1491673  77.4941313
  62.0856993  11.1161673  71.1501313  62.7696993  10.6021673  70.9811313
  61.6686993  11.1621673  70.3851313  62.1246993  11.0471673  71.0121313
  58.5476993  16.0821673  77.1731313  59.0936993  16.7611673  77.2271313
  58.1976993  16.1641673  76.3781313  58.5766993  16.1951673  77.0631313
  56.7306993  14.3101673  80.5621313  56.1066993  14.8921673  80.3801313
  56.9786993  14.0241673  79.7761313  56.6746993  14.3541673  80.4191313
  66.8116993   5.6401673  71.3941313  67.1896993   6.3171673  70.9941313
  65.9696993   5.8641673  71.4251313  66.7426993   5.7731673  71.3391313
  58.3246993   9.0861673  70.4771313  57.5196993   8.9091673  70.1921313
  58.2916993   9.9371673  70.6691313  58.2006993   9.1851673  70.4641313
  54.2546993   5.1531673  80.6271313  54.6946993   5.0501673  79.8811313
  54.7996993   4.8401673  81.2321313  54.3996993   5.0921673  80.6061313
  64.5066993   5.2391673  74.7691313  64.7136993   5.0381673  75.5931313
  65.2626993   5.5071673  74.4271313  64.6486993   5.2491673  74.8401313
  65.9716993   9.2661673  74.6231313  66.4476993   8.5371673  74.5751313
  65.1506993   8.9801673  74.5471313  65.9206993   9.1161673  74.6041313
  53.4306993   3.2801673  73.9341313  53.5566993   2.9511673  73.1361313
  52.6186993   3.0311673  74.1331313  53.3296993   3.1951673  73.8461313
  62.1876993  10.4331673  76.9781313  62.2636993  10.7741673  77.7771313
  62.3566993   9.5861673  77.0991313  62.2236993  10.3581673  77.1141313
  59.7096993   9.7071673  76.5431313  59.4116993   9.3921673  77.3001313
  60.4046993  10.1801673  76.7781313  59.7686993   9.7301673  76.6901313
  63.6386993  16.6631673  79.0731313  63.1876993  17.3061673  79.4521313
  64.3466993  16.5841673  79.5781313  63.6766993  16.7461673  79.2041313
  66.7416993   6.3791673  74.0651313  66.8446993   6.3211673  73.2011313
  67.4826993   6.0471673  74.3831313  66.8666993   6.3221673  73.9841313
  60.6616993  13.3441673  75.1721313  60.4566993  14.1771673  75.0131313
  59.8866993  12.9621673  75.2941313  60.5166993  13.4111673  75.1671313
  52.0356993   4.9011673  70.4671313  51.3636993   4.9151673  71.0231313
  52.1306993   4.0531673  70.2831313  51.9506993   4.7781673  70.5221313
  56.0236993  13.6061673  71.5811313  56.4646993  13.6861673  72.3291313
  55.2186993  13.3901673  71.8391313  55.9696993  13.5861673  71.7301313
  64.3146993   2.0311673  80.8571313  65.1696993   2.1301673  81.0021313
  63.9456993   2.5841673  81.4221313  64.3866993   2.1281673  80.9621313
  64.6186993   7.3111673  79.3481313  65.2846993   7.8521673  79.5081313
  64.2736993   7.6221673  78.6091313  64.6656993   7.4371673  79.2631313
  64.9316993  15.3771673  75.1551313  64.7576993  14.7231673  75.7051313
  65.6446993  15.1061673  74.7321313  65.0116993  15.2401673  75.1741313
  53.3526993  12.6761673  72.1821313  53.1086993  12.3691673  72.9621313
  53.3196993  11.9731673  71.6661313  53.3116993  12.5271673  72.2211313
  56.1716993  10.9211673  70.9251313  55.3536993  10.6531673  71.0651313
  56.1436993  11.7731673  71.1101313  56.0466993  11.0081673  70.9731313
  65.5236993  14.7291673  81.1011313  66.0506993  14.6461673  80.4101313
  65.1326993  13.9511673  81.1551313  65.5436993  14.6021673  81.0071313
  61.3966993   5.9811673  77.8021313  61.9476993   5.3741673  78.1021313
  60.9716993   6.2441673  78.5171313  61.4156993   5.9301673  77.9511313
  51.6446993   4.6311673  77.2881313  51.2766993   4.9331673  78.0191313
  52.1786993   4.0021673  77.5721313  51.6686993   4.5831673  77.4381313
  63.3666993   7.8121673  74.3641313  63.4346993   6.9621673  74.5451313
  62.5436993   7.8981673  74.0861313  63.2546993   7.6991673  74.3501313
  53.1186993  16.3061673  73.5741313  52.9736993  16.4621673  72.7281313
  53.9846993  16.3851673  73.6521313  53.2256993  16.3411673  73.4611313
  57.2856993   8.7031673  73.3021313  57.3856993   8.8421673  72.4471313
  58.1036993   8.6431673  73.5981313  57.4206993   8.7141673  73.2191313
  66.4456993  16.7671673  70.7821313  67.0826993  16.6331673  71.3631313
  66.1046993  15.9731673  70.6651313  66.4896993  16.6301673  70.8501313
  62.5206993  13.0321673  73.1041313  62.2696993  12.9041673  73.9301313
  62.2036993  12.3371673  72.6831313  62.4366993  12.9111673  73.1641313
  67.1646993   4.6901673  81.2241313  66.3316993   4.9401673  81.1521313
  67.1086993   3.8501673  81.4531313  67.0336993   4.6031673  81.2471313
  53.8056993  15.1211673  80.0511313  53.7266993  14.3111673  79.7351313
  53.3616993  15.6081673  79.4791313  53.7286993  15.0731673  79.9201313
  59.4066993  11.2401673  72.5341313  60.1236993  10.8931673  72.1781313
  59.3726993  12.0401673  72.1861313  59.5076993  11.3071673  72.4301313
  60.6246993   6.7971673  61.4438903  60.1006993   7.3931673  61.8068903
  61.0216993   6.4291673  62.1278903  60.6056993   6.8311673  61.5988903
  50.4936993  10.9371673  56.8998903  50.0526993  11.0551673  57.6428903
  50.2106993  10.1621673  56.6148903  50.3866993  10.8401673  56.9678903
  66.7686993  14.2381673  54.4148903  67.4696993  13.7191673  54.4108903
  66.1816993  13.7931673  53.9458903  66.7856993  14.0951673  54.3448903
  50.2366993   4.7291673  53.4068903  49.4586993   4.8911673  53.0468903
  50.2756993   3.8581673  53.4288903  50.1276993   4.6241673  53.3568903
  53.3756993   9.9921673  52.0788903  52.9836993   9.6211673  51.3928903
  53.2956993   9.3941673  52.7078903  53.3056993   9.8491673  52.0698903
  63.2956993   7.8641673  58.1198903  63.3756993   7.8681673  57.2508903
  62.7116993   7.2321673  58.2688903  63.2206993   7.7711673  58.0138903
  53.0026993  11.6331673  55.9788903  53.6106993  11.4631673  56.5818903
  52.2516993  11.4931673  56.3998903  52.9816993  11.5871673  56.1298903
  51.8936993  14.7241673  52.0558903  52.3606993  14.8081673  51.3238903
  52.3486993  14.1461673  52.5248903  52.0296993  14.6511673  52.0168903
  50.4336993  13.6721673  63.1548903  50.5626993  13.3921673  63.9708903
  49.8236993  13.1311673  62.8458903  50.3626993  13.5511673  63.2298903
  57.0076993  11.1971673  68.2218903  56.7716993  11.1941673  69.0618903
  56.2596993  11.0491673  67.7978903  56.8616993  11.1741673  68.2828903
  51.8796993   8.1931673  57.3568903  51.4176993   7.8011673  56.7298903
  52.5796993   7.6801673  57.4488903  51.9146993   8.0601673  57.2778903
  56.3876993   3.8031673  62.7038903  57.0656993   3.8211673  62.1548903
  56.3426993   2.9671673  62.9488903  56.4806993   3.6821673  62.6588903
  56.9896993  14.3891673  65.4848903  57.1276993  15.1491673  65.0778903
  57.7806993  14.0241673  65.5118903  57.1266993  14.4481673  65.4288903
  53.8806993   6.2931673  57.3798903  54.6976993   6.1061673  57.6228903
  53.4036993   5.6791673  57.7758903  53.9306993   6.1751673  57.4748903
  58.0846993  12.2741673  59.9898903  58.4326993  11.4751673  60.0198903
  58.7496993  12.7781673  59.7348903  58.2346993  12.2301673  59.9568903
  58.1416993  11.7231673  56.2008903  58.4726993  11.0791673  56.6868903
  58.3816993  11.5121673  55.3898903  58.2256993  11.5971673  56.1528903
  60.1096993   5.8541673  67.5398903  59.2616993   5.7551673  67.3618903
  60.1386993   6.5991673  67.9938903  59.9886993   5.9501673  67.5808903
  62.1296993   3.4551673  51.1678903  61.6796993   4.1361673  51.4748903
  62.2436993   2.9511673  51.8708903  62.0806993   3.4811673  51.3168903
  50.3356993   5.9541673  60.3698903  50.0796993   6.7851673  60.2948903
  49.6716993   5.5711673  60.7868903  50.1996993   6.0201673  60.4208903
  50.2456993  15.6641673  58.2698903  49.6536993  16.2221673  57.9568903
  50.6716993  15.3951673  57.5578903  50.2216993  15.7061673  58.1188903
  56.0856993  13.5081673  55.7498903  55.5066993  13.2331673  56.3418903
  56.7096993  12.8991673  55.7748903  56.0926993  13.3781673  55.8408903
  62.2286993  15.7961673  53.2718903  62.9556993  16.2681673  53.3738903
  62.4576993  15.0021673  53.5518903  62.3706993  15.7491673  53.3288903
  60.3966993  16.1881673  55.2618903  60.6106993  16.7151673  55.9238903
  61.1636993  16.0141673  54.8828903  60.5416993  16.2401673  55.3038903
  56.6706993   2.9041673  70.1588903  56.7876993   2.4501673  69.4228903
  56.9586993   3.7021673  69.9558903  56.7306993   2.9551673  70.0198903
  51.7906993  14.3341673  56.2008903  52.4466993  13.7591673  56.2158903
  52.1796993  15.0831673  55.9798903  51.9456993  14.3591673  56.1708903
  67.5236993   3.4281673  57.4628903  67.1776993   4.1061673  57.8888903
  66.8876993   2.8301673  57.4788903  67.3786993   3.4401673  57.5278903
  62.8356993  16.1981673  63.5668903  63.5796993  16.6541673  63.5568903
  62.7146993  15.9841673  62.7298903  62.9276993  16.2341673  63.4418903
  52.4036993   2.5011673  69.1428903  51.6256993   2.1111673  69.0708903
  52.8946993   2.0891673  68.5518903  52.3606993   2.3821673  69.0448903
  52.6086993  12.8211673  59.7008903  53.0316993  12.4651673  59.0268903
  52.9326993  12.3991673  60.3928903  52.7186993  12.7061673  59.7038903
  55.8396993  15.6731673  58.9968903  56.6836993  15.7771673  58.8018903
  55.5426993  16.4911673  59.0648903  55.9206993  15.8091673  58.9778903
  59.6466993   5.0701673  57.0838903  59.9336993   4.8381673  56.2938903
  60.3786993   5.1491673  57.5528903  59.7966993   5.0471673  57.0368903
  60.3686993   5.4091673  52.2048903  60.6496993   6.1971673  52.4538903
  59.5926993   5.5741673  51.8418903  60.2956993   5.5501673  52.1878903
  64.4096993  17.3831673  53.6718903  65.0746993  17.2351673  53.1268903
  64.7696993  17.3001673  54.4618903  64.5616993  17.3491673  53.7078903
  54.8376993  16.8921673  64.7368903  55.1296993  16.8251673  65.5568903
  54.2116993  16.2871673  64.6918903  54.7886993  16.7931673  64.8518903
  49.7516993   3.0491673  66.7288903  49.7476993   3.6361673  67.3748903
  50.3456993   3.3611673  66.1718903  49.8386993   3.1821673  66.7418903
  62.0896993  13.3831673  67.2708903  62.0556993  13.7651673  68.0548903
  62.9436993  13.3411673  67.0998903  62.2106993  13.4331673  67.3618903
  59.2276993  13.5801673  52.0208903  59.0466993  14.1251673  52.6778903
  59.9936993  13.8701673  51.7198903  59.3136993  13.7041673  52.0738903
  50.6886993   2.6441673  55.6438903  50.5746993   1.7801673  55.6748903
  50.2136993   2.9381673  56.3138903  50.6016993   2.5601673  55.7468903
  52.8306993  15.0541673  63.8588903  52.1326993  14.5461673  63.9848903
  53.0906993  14.8491673  63.0508903  52.7656993  14.9491673  63.7578903
  59.9926993   3.8521673  54.3888903  59.4846993   3.1901673  54.1348903
  60.0446993   4.3561673  53.6788903  59.9256993   3.8291673  54.2468903
  60.5416993  16.5471673  64.7688903  61.3096993  16.4671673  64.3628903
  59.9586993  16.4261673  64.1308903  60.5686993  16.5171673  64.6148903
  66.8186993  17.1501673  57.6698903  66.3636993  17.8671673  57.8708903
  66.2046993  16.5791673  57.4278903  66.6606993  17.1721673  57.6638903
  58.5906993   3.1601673  58.8018903  58.6646993   3.7281673  58.1438903
  58.7116993   3.6521673  59.5118903  58.6186993   3.3171673  58.8098903
  63.8156993  12.9951673  57.2138903  64.5166993  12.5131673  57.4028903
  63.1556993  12.4261673  57.2588903  63.8216993  12.8401673  57.2478903
  54.1916993  13.9051673  66.4258903  55.0326993  13.9681673  66.2038903
  54.1546993  14.3021673  67.2018903  54.3106993  13.9731673  66.5078903
  56.1546993   9.4161673  61.1748903  56.3266993   9.2061673  62.0038903
  55.4996993   8.8821673  60.9588903  56.0836993   9.3061673  61.2658903
  62.3826993   3.3301673  64.6898903  62.2876993   3.6491673  65.4958903
  61.7896993   2.6911673  64.6518903  62.2806993   3.2821673  64.8038903
  56.9046993   9.3541673  63.7648903  56.9576993  10.2011673  63.9668903
  56.6196993   8.9841673  64.5018903  56.8706993   9.4241673  63.9028903
  63.0816993  10.0491673  62.8948903  62.5676993   9.6371673  63.4658903
  62.9556993  10.8931673  63.0758903  62.9876993  10.1131673  63.0058903
  49.7256993  13.7251673  69.9758903  50.4816993  14.0741673  70.2338903
  49.9026993  12.8721673  69.9188903  49.8636993  13.6501673  70.0058903
  66.1026993   3.5101673  65.8338903  66.8746993   3.2851673  66.1708903
  65.6276993   3.7271673  66.5338903  66.1466993   3.5091673  65.9868903
  53.6466993   2.7931673  58.8038903  53.9186993   2.3631673  58.0958903
  53.4706993   2.1571673  59.3748903  53.6606993   2.6361673  58.7838903
  66.3346993  10.4881673  53.0218903  66.4536993  10.2011673  53.8368903
  67.1416993  10.5091673  52.6918903  66.4706993  10.4491673  53.0938903
  53.4706993  10.2201673  58.3528903  54.3216993  10.1401673  58.1798903
  53.1136993   9.5381673  57.9408903  53.5436993  10.1071673  58.2658903
  52.2376993  16.9451673  59.5898903  51.5646993  16.4471673  59.3448903
  52.6406993  17.1301673  58.8388903  52.1976993  16.8991673  59.4428903
  51.7876993   3.8951673  61.8858903  52.6306993   4.1151673  61.8428903
  51.3986993   4.4681673  61.3548903  51.8546993   4.0121673  61.8008903
  68.5686993  14.9971673  67.2758903  67.8866993  15.3071673  66.8288903
  68.1996993  14.5391673  67.9208903  68.4126993  14.9751673  67.3048903
  64.2296993   7.0251673  52.6068903  64.0096993   7.7561673  52.1848903
  63.7816993   7.0761673  53.3538903  64.1306993   7.1401673  52.6548903
  55.8386993  10.2271673  56.5878903  56.5516993  10.7221673  56.6778903
  56.0606993   9.6601673  55.9618903  55.9766993  10.2161673  56.5088903
  49.9946993  11.8701673  59.9078903  49.3276993  12.3581673  60.1838903
  50.6746993  12.4151673  59.9368903  49.9966993  12.0221673  59.9528903
  57.6416993   5.5801673  70.0038903  57.1576993   6.1571673  70.4458903
  57.6136993   5.8751673  69.1828903  57.5656993   5.7091673  69.9478903
  68.7396993   6.2641673  64.6158903  68.9546993   5.4641673  64.3398903
  67.8896993   6.3241673  64.4268903  68.6456993   6.1551673  64.5468903
  50.0606993   8.5541673  55.0108903  49.8756993   7.7151673  55.1628903
  50.7196993   8.5181673  54.4408903  50.1306993   8.4251673  54.9488903
  60.3616993  13.9301673  58.9148903  59.8386993  14.5641673  58.6218903
  60.6716993  13.5661673  58.1858903  60.3296993  13.9701673  58.7638903
  50.2326993  12.7181673  54.5858903  50.7846993  13.2871673  54.9498903
  50.0006993  12.2031673  55.2508903  50.2796993  12.7261673  54.7378903
  54.4366993  11.7181673  61.6748903  54.9036993  12.0071673  62.3528903
  55.0086993  11.2401673  61.2208903  54.5906993  11.6901673  61.7078903
  62.8726993   3.7321673  59.4118903  63.2166993   3.8841673  60.1988903
  62.4196993   2.9941673  59.5248903  62.8566993   3.6451673  59.5448903
  50.0626993  11.1671673  52.2138903  50.8186993  10.7351673  52.2718903
  50.0776993  11.6991673  52.9048903  50.1766993  11.1821673  52.3248903
  51.0026993   9.3881673  60.2188903  51.4336993   9.2591673  59.4718903
  50.7976993  10.2361673  60.1928903  51.0356993   9.4941673  60.1048903
  57.3486993   2.9521673  53.8688903  57.3466993   2.8351673  53.0038903
  57.1676993   3.8001673  53.9608903  57.3216993   3.0601673  53.7548903
  66.4026993  15.3791673  65.3658903  65.7316993  15.8931673  65.5838903
  66.4656993  15.4791673  64.5018903  66.3126993  15.4701673  65.2708903
  55.0866993  12.9041673  58.5008903  55.2126993  13.7471673  58.6878903
  55.7546993  12.5051673  58.8968903  55.2046993  12.9701673  58.5868903
  53.2166993   6.3871673  68.3628903  52.6806993   5.8811673  68.8308903
  53.2366993   5.9971673  67.5828903  53.1396993   6.2541673  68.3168903
  53.7016993   5.7841673  53.5028903  53.5736993   5.3361673  54.2408903
  53.1196993   5.4421673  52.9508903  53.5966993   5.6671673  53.5308903
  53.8686993   7.6141673  60.1018903  53.0876993   7.5551673  59.7188903
  53.9406993   6.8621673  60.5388903  53.7636993   7.4951673  60.1098903
  54.2986993   7.3511673  63.5698903  54.3236993   6.6761673  63.0188903
  53.6526993   7.8471673  63.2578903  54.2076993   7.3241673  63.4428903
  64.1936993   5.0641673  61.9658903  63.5316993   5.3921673  62.4288903
  64.3806993   5.6981673  61.3968903  64.1236993   5.2061673  61.9498903
  58.3986993  16.1281673  62.9618903  58.1216993  15.4871673  62.4388903
  58.1906993  16.8541673  62.5238903  58.3276993  16.1411673  62.8198903
  62.3866993   3.0331673  55.4768903  62.8766993   3.7501673  55.3998903
  61.5966993   3.2941673  55.2138903  62.3426993   3.1771673  55.4268903
  52.0976993   8.7061673  69.1288903  52.0606993   9.2071673  68.4148903
  52.4286993   7.9541673  68.8338903  52.1406993   8.6681673  68.9798903
  63.7006993  10.9111673  67.3868903  64.1846993  11.6291673  67.4848903
  64.0946993  10.4841673  66.7358903  63.8306993  10.9541673  67.3048903
  57.9966993  13.7561673  68.5638903  58.3506993  13.5781673  69.3408903
  57.5606993  13.0271673  68.3648903  57.9846993  13.6221673  68.6498903
  58.9686993   4.5031673  61.2018903  59.4486993   5.2021673  61.4098903
  59.3416993   3.8561673  61.6528903  59.0946993   4.5111673  61.2988903
  61.1576993   7.6721673  53.4758903  61.1496993   8.3941673  52.9858903
  60.5186993   7.8071673  54.0528903  61.0626993   7.7991673  53.4888903
  66.1296993  11.5421673  57.4568903  66.4856993  11.1921673  58.1718903
  66.1216993  10.8811673  56.8868903  66.1816993  11.3921673  57.4778903
  62.1746993  14.6081673  61.3008903  61.5716993  14.3121673  60.7438903
  62.7196993  15.0601673  60.7918903  62.1656993  14.6311673  61.1428903
  62.1876993  11.4591673  60.7008903  61.3906993  11.6831673  60.9748903
  62.4456993  10.8651673  61.2858903  62.1076993  11.4041673  60.8278903
  56.0796993  16.2711673  55.1488903  55.9326993  15.4951673  55.5198903
  56.7686993  16.1241673  54.6338903  56.1596993  16.1341673  55.1278903
  58.3716993  15.7871673  53.5508903  58.9936993  15.9501673  54.1408903
  58.4076993  16.4781673  53.0188903  58.4686993  15.9131673  53.5598903
  65.4476993   9.4571673  65.5468903  65.5026993   9.5821673  64.6848903
  66.2006993   9.7771673  65.8488903  65.5666993   9.5221673  65.4638903
  61.6386993  14.8061673  69.8238903  61.8026993  15.0891673  70.6328903
  61.9016993  15.4671673  69.3188903  61.7016993  14.9461673  69.8688903
  52.8726993   8.3211673  54.3798903  53.1966993   7.5421673  54.1578903
  53.5186993   8.6891673  54.8348903  53.0156993   8.2601673  54.4138903
  61.1786993   9.2631673  65.1468903  61.0236993   9.8731673  65.7508903
  61.7126993   8.7051673  65.5528903  61.2346993   9.2711673  65.2958903
  59.5626993   7.6631673  55.8048903  59.6216993   8.3131673  56.3838903
  59.3736993   6.9671673  56.2958903  59.5436993   7.6561673  55.9628903
  64.7886993  11.9921673  61.6738903  64.3096993  12.2901673  61.0078903
  64.4326993  11.2161673  61.8518903  64.6656993  11.9211673  61.6018903
  54.0586993   2.1801673  52.3168903  53.5476993   2.2331673  51.6108903
  54.8426993   2.4201673  52.0208903  54.0986993   2.2231673  52.1688903
  58.7856993   9.7101673  60.2358903  57.9386993   9.5161673  60.3168903
  59.1096993   9.5451673  61.0288903  58.7076993   9.6571673  60.3648903
  55.5376993  16.4401673  51.1218903  55.9766993  15.7431673  51.4098903
  55.7446993  17.0641673  51.6948903  55.6336993  16.4291673  51.2488903
  52.6336993   9.4031673  62.5518903  53.3556993   9.8911673  62.5148903
  52.3636993   9.3731673  61.7228903  52.7006993   9.4711673  62.4238903
  55.8636993   4.5741673  59.2868903  56.7096993   4.3841673  59.3848903
  55.4936993   3.7971673  59.1488903  55.9336993   4.4311673  59.2808903
  68.4806993  16.1581673  53.6138903  69.1746993  15.6911673  53.3658903
  67.9416993  15.5601673  53.9508903  68.5036993  16.0001673  53.6268903
  50.6846993   5.9121673  55.9418903  51.1736993   5.6201673  56.6028903
  50.8136993   5.3191673  55.3148903  50.7756993   5.7811673  55.9468903
  65.7196993   8.9341673  62.7928903  65.7126993   8.1581673  63.1908903
  64.8786993   9.1681673  62.7858903  65.5946993   8.8541673  62.8508903
  55.2096993   7.3461673  51.4278903  54.5996993   6.9411673  51.9018903
  54.8236993   7.4641673  50.6548903  55.0626993   7.3031673  51.3838903
  52.0286993  10.4551673  66.8298903  51.6076993   9.9371673  66.2688903
  51.6766993  11.2411673  66.6868903  51.9146993  10.4951673  66.7258903
  66.9756993   9.0051673  60.2298903  66.6896993   9.4061673  60.9498903
  67.8356993   8.9431673  60.3568903  67.0606993   9.0551673  60.3548903
  56.6646993   5.8071673  54.1378903  56.9366993   6.6331673  54.2048903
  55.8016993   5.8821673  54.0418903  56.5776993   5.9401673  54.1328903
  64.6376993   2.9291673  68.7698903  64.1126993   3.3881673  69.2938903
  64.2766993   2.1341673  68.7638903  64.5066993   2.8791673  68.8458903
  50.1446993   1.7771673  60.6738903  50.1886993   2.1211673  59.8728903
  50.8996993   2.0141673  61.0408903  50.2626993   1.8631673  60.6098903
  68.1066993  14.6381673  60.7588903  68.3966993  14.8951673  59.9778903
  68.8016993  14.7341673  61.2778903  68.2526993  14.6901673  60.7198903
  63.1296993   6.4981673  68.8458903  63.2026993   6.6021673  69.7088903
  62.4956993   7.0561673  68.6248903  63.0466993   6.5961673  68.9408903
  65.3976993   6.8171673  67.2108903  65.7166993   7.6031673  67.4138903
  65.0276993   6.5471673  67.9538903  65.3906993   6.8931673  67.3508903
  64.7116993  13.2411673  52.7408903  65.0456993  12.4351673  52.7758903
  63.9566993  13.1691673  53.1708903  64.6496993  13.1111673  52.8098903
  65.1936993   5.0751673  58.3998903  64.4486993   4.7521673  58.7178903
  65.1956993   5.9011673  58.6798903  65.0836993   5.1491673  58.4878903
  68.0956993   7.3591673  69.9458903  68.0436993   7.0181673  69.1448903
  68.8326993   7.8261673  69.9238903  68.1966993   7.3781673  69.8238903
  67.6336993  11.0351673  66.1518903  68.2616993  10.4861673  65.8958903
  67.5726993  11.6001673  65.4898903  67.7176993  11.0381673  66.0158903
  62.0856993  11.1161673  52.1438903  62.7696993  10.6021673  51.9748903
  61.6686993  11.1621673  51.3788903  62.1246993  11.0471673  52.0058903
  56.7676993  12.2661673  63.4478903  56.4696993  12.8581673  64.0148903
  56.8226993  12.7081673  62.6988903  56.7316993  12.4191673  63.4208903
  54.7466993  11.2161673  66.8458903  53.9406993  10.9261673  67.0128903
  54.6576993  12.0841673  66.8518903  54.6146993  11.3011673  66.8708903
  59.2836993   8.6891673  62.9388903  59.7596993   9.0631673  63.5668903
  58.4606993   8.8231673  63.1978903  59.2326993   8.7641673  63.0698903
  55.9936993   4.2921673  65.6798903  56.1546993   3.5481673  66.1068903
  55.9486993   4.0431673  64.8448903  56.0106993   4.1451673  65.6198903
  58.5476993  16.0821673  58.1668903  59.0936993  16.7611673  58.2208903
  58.1976993  16.1641673  57.3718903  58.5766993  16.1951673  58.0568903
  56.7306993  14.3101673  61.5558903  56.1066993  14.8921673  61.3738903
  56.9786993  14.0241673  60.7698903  56.6746993  14.3541673  61.4128903
  61.0396993  10.9441673  68.5448903  61.7966993  11.2301673  68.2188903
  60.4926993  10.9961673  67.8668903  61.0706993  10.9941673  68.3958903
  64.9486993  13.4941673  67.0488903  65.2946993  13.7641673  67.8028903
  65.2426993  14.0761673  66.4688903  65.0436993  13.6201673  67.0748903
  66.8116993   5.6401673  52.3878903  67.1896993   6.3171673  51.9878903
  65.9696993   5.8641673  52.4188903  66.7426993   5.7731673  52.3328903
  58.3246993   9.0861673  51.4708903  57.5196993   8.9091673  51.1858903
  58.2916993   9.9371673  51.6628903  58.2006993   9.1851673  51.4578903
  54.2546993   5.1531673  61.6208903  54.6946993   5.0501673  60.8748903
  54.7996993   4.8401673  62.2258903  54.3996993   5.0921673  61.5998903
  62.2706993   4.2551673  67.2128903  61.6226993   4.7251673  67.5608903
  62.8356993   4.1661673  67.8718903  62.2586993   4.3111673  67.3618903
  61.9586993   5.7921673  63.5108903  62.2606993   6.2121673  64.2138903
  61.9946993   4.9521673  63.7428903  62.0086993   5.7301673  63.6488903
  59.3836993  15.9591673  67.4358903  59.8616993  15.3591673  67.0198903
  59.0326993  15.5161673  68.1008903  59.4026993  15.8051673  67.4728903
  64.5066993   5.2391673  55.7628903  64.7136993   5.0381673  56.5868903
  65.2626993   5.5071673  55.4208903  64.6486993   5.2491673  55.8338903
  65.9716993   9.2661673  55.6168903  66.4476993   8.5371673  55.5688903
  65.1506993   8.9801673  55.5408903  65.9206993   9.1161673  55.5978903
  59.4426993  11.1781673  66.4558903  58.6476993  11.1141673  66.8068903
  59.5136993  12.0251673  66.2608903  59.3356993  11.2931673  66.4788903
  55.2726993  17.3851673  61.7728903  55.2836993  17.4441673  62.6428903
  54.8476993  16.6381673  61.6228903  55.2116993  17.2831673  61.8788903
  53.4306993   3.2801673  54.9278903  53.5566993   2.9511673  54.1298903
  52.6186993   3.0311673  55.1268903  53.3296993   3.1951673  54.8398903
  62.1876993  10.4331673  57.9718903  62.2636993  10.7741673  58.7708903
  62.3566993   9.5861673  58.0928903  62.2236993  10.3581673  58.1078903
  59.7096993   9.7071673  57.5368903  59.4116993   9.3921673  58.2938903
  60.4046993  10.1801673  57.7718903  59.7686993   9.7301673  57.6838903
  59.9316993  13.8251673  65.5638903  60.6186993  13.7111673  66.0888903
  60.0656993  14.6161673  65.2198903  60.0526993  13.9251673  65.5908903
  68.1076993   6.4341673  67.3748903  67.2526993   6.3121673  67.5008903
  68.2606993   6.0391673  66.6118903  68.0036993   6.3571673  67.2808903
  62.6206993   7.0991673  65.9508903  62.3656993   6.3801673  66.3728903
  63.4416993   7.2151673  66.2208903  62.7046993   7.0101673  66.0528903
  52.0366993  16.8831673  67.2148903  51.3826993  16.3141673  67.3128903
  51.6616993  17.6561673  67.3658903  51.8846993  16.9131673  67.2518903
  60.5546993   8.2891673  69.1378903  60.8776993   8.9751673  68.7058903
  59.8506993   8.6121673  69.5398903  60.4976993   8.4381673  69.1328903
  63.6386993  16.6631673  60.0668903  63.1876993  17.3061673  60.4458903
  64.3466993  16.5841673  60.5718903  63.6766993  16.7461673  60.1978903
  60.3396993  11.7531673  62.9968903  59.6456993  12.1551673  63.3398903
  61.0166993  12.1861673  63.3358903  60.3366993  11.8761673  63.0978903
  65.7166993  14.3461673  69.5768903  66.4926993  13.9561673  69.6598903
  65.2476993  14.0101673  70.2318903  65.7616993  14.2391673  69.6858903
  53.4076993   5.2911673  65.3438903  53.7826993   5.9101673  64.8568903
  54.0816993   4.8171673  65.6288903  53.5626993   5.3131673  65.3138903
  51.1826993   3.7391673  64.6188903  51.2596993   3.5701673  63.7658903
  51.9286993   4.1451673  64.8158903  51.3036993   3.7741673  64.5218903
  66.7416993   6.3791673  55.0588903  66.8446993   6.3211673  54.1948903
  67.4826993   6.0471673  55.3768903  66.8666993   6.3221673  54.9778903
  60.6616993  13.3441673  56.1658903  60.4566993  14.1771673  56.0068903
  59.8866993  12.9621673  56.2878903  60.5166993  13.4111673  56.1608903
  65.8436993   6.5251673  64.4148903  65.8416993   5.6621673  64.5388903
  65.9106993   6.8491673  65.2218903  65.8536993   6.4451673  64.5518903
  50.5796993   8.9651673  64.8428903  50.8996993   9.1841673  64.0618903
  50.4796993   8.1001673  64.7878903  50.6116993   8.8701673  64.7198903
  52.0356993   4.9011673  51.4608903  51.3636993   4.9151673  52.0168903
  52.1306993   4.0531673  51.2768903  51.9506993   4.7781673  51.5158903
  56.0236993  13.6061673  52.5748903  56.4646993  13.6861673  53.3228903
  55.2186993  13.3901673  52.8328903  55.9696993  13.5861673  52.7238903
  64.3146993   2.0311673  61.8508903  65.1696993   2.1301673  61.9958903
  63.9456993   2.5841673  62.4158903  64.3866993   2.1281673  61.9558903
  55.3426993   8.2571673  66.2278903  54.9466993   9.0311673  66.3028903
  54.9366993   7.8841673  65.5518903  55.2246993   8.3161673  66.1388903
  64.6186993   7.3111673  60.3418903  65.2846993   7.8521673  60.5018903
  64.2736993   7.6221673  59.6028903  64.6656993   7.4371673  60.2568903
  64.9316993  15.3771673  56.1488903  64.7576993  14.7231673  56.6988903
  65.6446993  15.1061673  55.7258903  65.0116993  15.2401673  56.1678903
  53.3526993  12.6761673  53.1758903  53.1086993  12.3691673  53.9558903
  53.3196993  11.9731673  52.6598903  53.3116993  12.5271673  53.2148903
  56.1716993  10.9211673  51.9188903  55.3536993  10.6531673  52.0588903
  56.1436993  11.7731673  52.1038903  56.0466993  11.0081673  51.9668903
  62.6066993  12.8301673  63.8398903  62.8126993  13.1311673  64.6318903
  62.5456993  13.5521673  63.3548903  62.6276993  12.9811673  63.8848903
  62.1406993  17.0441673  68.0858903  61.3876993  17.0261673  67.6448903
  62.3086993  17.8961673  68.1698903  62.0546993  17.1671673  68.0328903
  57.3776993   6.3111673  67.2558903  57.0556993   5.7351673  66.6858903
  57.0186993   7.0661673  67.0098903  57.2776993   6.3371673  67.1358903
  67.4186993  11.4691673  63.2978903  67.3866993  10.6071673  63.1628903
  66.7256993  11.7711673  62.8638903  67.3116993  11.3861673  63.2138903
  55.8126993  16.6671673  67.5038903  55.8536993  16.7931673  68.3668903
  56.4636993  16.1071673  67.3478903  55.9146993  16.6031673  67.6088903
  65.5236993  14.7291673  62.0948903  66.0506993  14.6461673  61.4038903
  65.1326993  13.9511673  62.1488903  65.5436993  14.6021673  62.0008903
  53.4056993  15.0501673  68.8638903  54.0006993  15.4811673  69.3358903
  53.0416993  15.6741673  68.3748903  53.4396993  15.2061673  68.8608903
  61.3966993   5.9811673  58.7958903  61.9476993   5.3741673  59.0958903
  60.9716993   6.2441673  59.5108903  61.4156993   5.9301673  58.9448903
  51.6446993   4.6311673  58.2818903  51.2766993   4.9331673  59.0128903
  52.1786993   4.0021673  58.5658903  51.6686993   4.5831673  58.4318903
  51.3326993  13.0391673  65.7928903  50.7586993  13.4551673  66.3018903
  52.0656993  13.5041673  65.8878903  51.3566993  13.1691673  65.8818903
  63.3666993   7.8121673  55.3578903  63.4346993   6.9621673  55.5388903
  62.5436993   7.8981673  55.0798903  63.2546993   7.6991673  55.3438903
  53.1186993  16.3061673  54.5678903  52.9736993  16.4621673  53.7218903
  53.9846993  16.3851673  54.6458903  53.2256993  16.3411673  54.4548903
  57.2856993   8.7031673  54.2958903  57.3856993   8.8421673  53.4408903
  58.1036993   8.6431673  54.5918903  57.4206993   8.7141673  54.2128903
  66.4456993  16.7671673  51.7758903  67.0826993  16.6331673  52.3568903
  66.1046993  15.9731673  51.6588903  66.4896993  16.6301673  51.8438903
  66.6406993   9.1851673  68.5088903  67.2746993   9.0151673  69.0828903
  67.0576993   9.5881673  67.8568903  66.7956993   9.2201673  68.4978903
  62.5206993  13.0321673  54.0978903  62.2696993  12.9041673  54.9238903
  62.2036993  12.3371673  53.6768903  62.4366993  12.9111673  54.1578903
  67.2656993   3.7491673  69.2468903  67.0696993   4.3931673  69.8018903
  66.5436993   3.2591673  69.2388903  67.1306993   3.7721673  69.3278903
  67.1646993   4.6901673  62.2178903  66.3316993   4.9401673  62.1458903
  67.1086993   3.8501673  62.4468903  67.0336993   4.6031673  62.2408903
  64.0516993   9.2961673  69.8638903  64.9226993   9.2601673  69.8278903
  63.8326993   9.7161673  69.1318903  64.1486993   9.3521673  69.7508903
  53.8056993  15.1211673  61.0448903  53.7266993  14.3111673  60.7288903
  53.3616993  15.6081673  60.4728903  53.7286993  15.0731673  60.9138903
  59.4066993  11.2401673  53.5278903  60.1236993  10.8931673  53.1718903
  59.3726993  12.0401673  53.1798903  59.5076993  11.3071673  53.4238903
  51.3776993  17.3651673  64.6258903  51.8706993  17.3091673  65.3438903
  51.5656993  16.6321673  64.1908903  51.4786993  17.2481673  64.6678903
  60.6246993   6.7971673  42.4376493  60.1006993   7.3931673  42.8006493
  61.0216993   6.4291673  43.1216493  60.6056993   6.8311673  42.5926493
  50.4936993  10.9371673  37.8936493  50.0526993  11.0551673  38.6366493
  50.2106993  10.1621673  37.6086493  50.3866993  10.8401673  37.9616493
  66.7686993  14.2381673  35.4086493  67.4696993  13.7191673  35.4046493
  66.1816993  13.7931673  34.9396493  66.7856993  14.0951673  35.3386493
  50.2366993   4.7291673  34.4006493  49.4586993   4.8911673  34.0406493
  50.2756993   3.8581673  34.4226493  50.1276993   4.6241673  34.3506493
  53.3756993   9.9921673  33.0726493  52.9836993   9.6211673  32.3866493
  53.2956993   9.3941673  33.7016493  53.3056993   9.8491673  33.0636493
  63.2956993   7.8641673  39.1136493  63.3756993   7.8681673  38.2446493
  62.7116993   7.2321673  39.2626493  63.2206993   7.7711673  39.0076493
  53.0026993  11.6331673  36.9726493  53.6106993  11.4631673  37.5756493
  52.2516993  11.4931673  37.3936493  52.9816993  11.5871673  37.1236493
  51.8936993  14.7241673  33.0496493  52.3606993  14.8081673  32.3176493
  52.3486993  14.1461673  33.5186493  52.0296993  14.6511673  33.0106493
  57.0076993  11.1971673  49.2156493  56.7716993  11.1941673  50.0556493
  56.2596993  11.0491673  48.7916493  56.8616993  11.1741673  49.2766493
  51.8796993   8.1931673  38.3506493  51.4176993   7.8011673  37.7236493
  52.5796993   7.6801673  38.4426493  51.9146993   8.0601673  38.2716493
  56.3876993   3.8031673  43.6976493  57.0656993   3.8211673  43.1486493
  56.3426993   2.9671673  43.9426493  56.4806993   3.6821673  43.6526493
  56.9896993  14.3891673  46.4786493  57.1276993  15.1491673  46.0716493
  57.7806993  14.0241673  46.5056493  57.1266993  14.4481673  46.4226493
  53.8806993   6.2931673  38.3736493  54.6976993   6.1061673  38.6166493
  53.4036993   5.6791673  38.7696493  53.9306993   6.1751673  38.4686493
  58.0846993  12.2741673  40.9836493  58.4326993  11.4751673  41.0136493
  58.7496993  12.7781673  40.7286493  58.2346993  12.2301673  40.9506493
  58.1416993  11.7231673  37.1946493  58.4726993  11.0791673  37.6806493
  58.3816993  11.5121673  36.3836493  58.2256993  11.5971673  37.1466493
  60.1096993   5.8541673  48.5336493  59.2616993   5.7551673  48.3556493
  60.1386993   6.5991673  48.9876493  59.9886993   5.9501673  48.5746493
  62.1296993   3.4551673  32.1616493  61.6796993   4.1361673  32.4686493
  62.2436993   2.9511673  32.8646493  62.0806993   3.4811673  32.3106493
  50.3356993   5.9541673  41.3636493  50.0796993   6.7851673  41.2886493
  49.6716993   5.5711673  41.7806493  50.1996993   6.0201673  41.4146493
  56.0856993  13.5081673  36.7436493  55.5066993  13.2331673  37.3356493
  56.7096993  12.8991673  36.7686493  56.0926993  13.3781673  36.8346493
  62.2286993  15.7961673  34.2656493  62.9556993  16.2681673  34.3676493
  62.4576993  15.0021673  34.5456493  62.3706993  15.7491673  34.3226493
  60.3966993  16.1881673  36.2556493  60.6106993  16.7151673  36.9176493
  61.1636993  16.0141673  35.8766493  60.5416993  16.2401673  36.2976493
  56.6706993   2.9041673  51.1526493  56.7876993   2.4501673  50.4166493
  56.9586993   3.7021673  50.9496493  56.7306993   2.9551673  51.0136493
  67.5236993   3.4281673  38.4566493  67.1776993   4.1061673  38.8826493
  66.8876993   2.8301673  38.4726493  67.3786993   3.4401673  38.5216493
  62.8356993  16.1981673  44.5606493  63.5796993  16.6541673  44.5506493
  62.7146993  15.9841673  43.7236493  62.9276993  16.2341673  44.4356493
  52.4036993   2.5011673  50.1366493  51.6256993   2.1111673  50.0646493
  52.8946993   2.0891673  49.5456493  52.3606993   2.3821673  50.0386493
  55.8396993  15.6731673  39.9906493  56.6836993  15.7771673  39.7956493
  55.5426993  16.4911673  40.0586493  55.9206993  15.8091673  39.9716493
  59.6466993   5.0701673  38.0776493  59.9336993   4.8381673  37.2876493
  60.3786993   5.1491673  38.5466493  59.7966993   5.0471673  38.0306493
  60.3686993   5.4091673  33.1986493  60.6496993   6.1971673  33.4476493
  59.5926993   5.5741673  32.8356493  60.2956993   5.5501673  33.1816493
  64.4096993  17.3831673  34.6656493  65.0746993  17.2351673  34.1206493
  64.7696993  17.3001673  35.4556493  64.5616993  17.3491673  34.7016493
  54.8376993  16.8921673  45.7306493  55.1296993  16.8251673  46.5506493
  54.2116993  16.2871673  45.6856493  54.7886993  16.7931673  45.8456493
  49.7516993   3.0491673  47.7226493  49.7476993   3.6361673  48.3686493
  50.3456993   3.3611673  47.1656493  49.8386993   3.1821673  47.7356493
  62.0896993  13.3831673  48.2646493  62.0556993  13.7651673  49.0486493
  62.9436993  13.3411673  48.0936493  62.2106993  13.4331673  48.3556493
  59.2276993  13.5801673  33.0146493  59.0466993  14.1251673  33.6716493
  59.9936993  13.8701673  32.7136493  59.3136993  13.7041673  33.0676493
  50.6886993   2.6441673  36.6376493  50.5746993   1.7801673  36.6686493
  50.2136993   2.9381673  37.3076493  50.6016993   2.5601673  36.7406493
  52.8306993  15.0541673  44.8526493  52.1326993  14.5461673  44.9786493
  53.0906993  14.8491673  44.0446493  52.7656993  14.9491673  44.7516493
  59.9926993   3.8521673  35.3826493  59.4846993   3.1901673  35.1286493
  60.0446993   4.3561673  34.6726493  59.9256993   3.8291673  35.2406493
  60.5416993  16.5471673  45.7626493  61.3096993  16.4671673  45.3566493
  59.9586993  16.4261673  45.1246493  60.5686993  16.5171673  45.6086493
  66.8186993  17.1501673  38.6636493  66.3636993  17.8671673  38.8646493
  66.2046993  16.5791673  38.4216493  66.6606993  17.1721673  38.6576493
  58.5906993   3.1601673  39.7956493  58.6646993   3.7281673  39.1376493
  58.7116993   3.6521673  40.5056493  58.6186993   3.3171673  39.8036493
  63.8156993  12.9951673  38.2076493  64.5166993  12.5131673  38.3966493
  63.1556993  12.4261673  38.2526493  63.8216993  12.8401673  38.2416493
  54.1916993  13.9051673  47.4196493  55.0326993  13.9681673  47.1976493
  54.1546993  14.3021673  48.1956493  54.3106993  13.9731673  47.5016493
  56.1546993   9.4161673  42.1686493  56.3266993   9.2061673  42.9976493
  55.4996993   8.8821673  41.9526493  56.0836993   9.3061673  42.2596493
  62.3826993   3.3301673  45.6836493  62.2876993   3.6491673  46.4896493
  61.7896993   2.6911673  45.6456493  62.2806993   3.2821673  45.7976493
  56.9046993   9.3541673  44.7586493  56.9576993  10.2011673  44.9606493
  56.6196993   8.9841673  45.4956493  56.8706993   9.4241673  44.8966493
  63.0816993  10.0491673  43.8886493  62.5676993   9.6371673  44.4596493
  62.9556993  10.8931673  44.0696493  62.9876993  10.1131673  43.9996493
  49.7256993  13.7251673  50.9696493  50.4816993  14.0741673  51.2276493
  49.9026993  12.8721673  50.9126493  49.8636993  13.6501673  50.9996493
  66.1026993   3.5101673  46.8276493  66.8746993   3.2851673  47.1646493
  65.6276993   3.7271673  47.5276493  66.1466993   3.5091673  46.9806493
  53.6466993   2.7931673  39.7976493  53.9186993   2.3631673  39.0896493
  53.4706993   2.1571673  40.3686493  53.6606993   2.6361673  39.7776493
  66.3346993  10.4881673  34.0156493  66.4536993  10.2011673  34.8306493
  67.1416993  10.5091673  33.6856493  66.4706993  10.4491673  34.0876493
  53.4706993  10.2201673  39.3466493  54.3216993  10.1401673  39.1736493
  53.1136993   9.5381673  38.9346493  53.5436993  10.1071673  39.2596493
  51.7876993   3.8951673  42.8796493  52.6306993   4.1151673  42.8366493
  51.3986993   4.4681673  42.3486493  51.8546993   4.0121673  42.7946493
  68.5686993  14.9971673  48.2696493  67.8866993  15.3071673  47.8226493
  68.1996993  14.5391673  48.9146493  68.4126993  14.9751673  48.2986493
  64.2296993   7.0251673  33.6006493  64.0096993   7.7561673  33.1786493
  63.7816993   7.0761673  34.3476493  64.1306993   7.1401673  33.6486493
  55.8386993  10.2271673  37.5816493  56.5516993  10.7221673  37.6716493
  56.0606993   9.6601673  36.9556493  55.9766993  10.2161673  37.5026493
  57.6416993   5.5801673  50.9976493  57.1576993   6.1571673  51.4396493
  57.6136993   5.8751673  50.1766493  57.5656993   5.7091673  50.9416493
  68.7396993   6.2641673  45.6096493  68.9546993   5.4641673  45.3336493
  67.8896993   6.3241673  45.4206493  68.6456993   6.1551673  45.5406493
  50.0606993   8.5541673  36.0046493  49.8756993   7.7151673  36.1566493
  50.7196993   8.5181673  35.4346493  50.1306993   8.4251673  35.9426493
  60.3616993  13.9301673  39.9086493  59.8386993  14.5641673  39.6156493
  60.6716993  13.5661673  39.1796493  60.3296993  13.9701673  39.7576493
  54.4366993  11.7181673  42.6686493  54.9036993  12.0071673  43.3466493
  55.0086993  11.2401673  42.2146493  54.5906993  11.6901673  42.7016493
  62.8726993   3.7321673  40.4056493  63.2166993   3.8841673  41.1926493
  62.4196993   2.9941673  40.5186493  62.8566993   3.6451673  40.5386493
  50.0626993  11.1671673  33.2076493  50.8186993  10.7351673  33.2656493
  50.0776993  11.6991673  33.8986493  50.1766993  11.1821673  33.3186493
  51.0026993   9.3881673  41.2126493  51.4336993   9.2591673  40.4656493
  50.7976993  10.2361673  41.1866493  51.0356993   9.4941673  41.0986493
  57.3486993   2.9521673  34.8626493  57.3466993   2.8351673  33.9976493
  57.1676993   3.8001673  34.9546493  57.3216993   3.0601673  34.7486493
  66.4026993  15.3791673  46.3596493  65.7316993  15.8931673  46.5776493
  66.4656993  15.4791673  45.4956493  66.3126993  15.4701673  46.2646493
  55.0866993  12.9041673  39.4946493  55.2126993  13.7471673  39.6816493
  55.7546993  12.5051673  39.8906493  55.2046993  12.9701673  39.5806493
  53.2166993   6.3871673  49.3566493  52.6806993   5.8811673  49.8246493
  53.2366993   5.9971673  48.5766493  53.1396993   6.2541673  49.3106493
  53.7016993   5.7841673  34.4966493  53.5736993   5.3361673  35.2346493
  53.1196993   5.4421673  33.9446493  53.5966993   5.6671673  34.5246493
  53.8686993   7.6141673  41.0956493  53.0876993   7.5551673  40.7126493
  53.9406993   6.8621673  41.5326493  53.7636993   7.4951673  41.1036493
  54.2986993   7.3511673  44.5636493  54.3236993   6.6761673  44.0126493
  53.6526993   7.8471673  44.2516493  54.2076993   7.3241673  44.4366493
  64.1936993   5.0641673  42.9596493  63.5316993   5.3921673  43.4226493
  64.3806993   5.6981673  42.3906493  64.1236993   5.2061673  42.9436493
  58.3986993  16.1281673  43.9556493  58.1216993  15.4871673  43.4326493
  58.1906993  16.8541673  43.5176493  58.3276993  16.1411673  43.8136493
  62.3866993   3.0331673  36.4706493  62.8766993   3.7501673  36.3936493
  61.5966993   3.2941673  36.2076493  62.3426993   3.1771673  36.4206493
  52.0976993   8.7061673  50.1226493  52.0606993   9.2071673  49.4086493
  52.4286993   7.9541673  49.8276493  52.1406993   8.6681673  49.9736493
  63.7006993  10.9111673  48.3806493  64.1846993  11.6291673  48.4786493
  64.0946993  10.4841673  47.7296493  63.8306993  10.9541673  48.2986493
  57.9966993  13.7561673  49.5576493  58.3506993  13.5781673  50.3346493
  57.5606993  13.0271673  49.3586493  57.9846993  13.6221673  49.6436493
  58.9686993   4.5031673  42.1956493  59.4486993   5.2021673  42.4036493
  59.3416993   3.8561673  42.6466493  59.0946993   4.5111673  42.2926493
  61.1576993   7.6721673  34.4696493  61.1496993   8.3941673  33.9796493
  60.5186993   7.8071673  35.0466493  61.0626993   7.7991673  34.4826493
  66.1296993  11.5421673  38.4506493  66.4856993  11.1921673  39.1656493
  66.1216993  10.8811673  37.8806493  66.1816993  11.3921673  38.4716493
  62.1746993  14.6081673  42.2946493  61.5716993  14.3121673  41.7376493
  62.7196993  15.0601673  41.7856493  62.1656993  14.6311673  42.1366493
  62.1876993  11.4591673  41.6946493  61.3906993  11.6831673  41.9686493
  62.4456993  10.8651673  42.2796493  62.1076993  11.4041673  41.8216493
  56.0796993  16.2711673  36.1426493  55.9326993  15.4951673  36.5136493
  56.7686993  16.1241673  35.6276493  56.1596993  16.1341673  36.1216493
  58.3716993  15.7871673  34.5446493  58.9936993  15.9501673  35.1346493
  58.4076993  16.4781673  34.0126493  58.4686993  15.9131673  34.5536493
  65.4476993   9.4571673  46.5406493  65.5026993   9.5821673  45.6786493
  66.2006993   9.7771673  46.8426493  65.5666993   9.5221673  46.4576493
  61.6386993  14.8061673  50.8176493  61.8026993  15.0891673  51.6266493
  61.9016993  15.4671673  50.3126493  61.7016993  14.9461673  50.8626493
  52.8726993   8.3211673  35.3736493  53.1966993   7.5421673  35.1516493
  53.5186993   8.6891673  35.8286493  53.0156993   8.2601673  35.4076493
  61.1786993   9.2631673  46.1406493  61.0236993   9.8731673  46.7446493
  61.7126993   8.7051673  46.5466493  61.2346993   9.2711673  46.2896493
  59.5626993   7.6631673  36.7986493  59.6216993   8.3131673  37.3776493
  59.3736993   6.9671673  37.2896493  59.5436993   7.6561673  36.9566493
  64.7886993  11.9921673  42.6676493  64.3096993  12.2901673  42.0016493
  64.4326993  11.2161673  42.8456493  64.6656993  11.9211673  42.5956493
  54.0586993   2.1801673  33.3106493  53.5476993   2.2331673  32.6046493
  54.8426993   2.4201673  33.0146493  54.0986993   2.2231673  33.1626493
  58.7856993   9.7101673  41.2296493  57.9386993   9.5161673  41.3106493
  59.1096993   9.5451673  42.0226493  58.7076993   9.6571673  41.3586493
  55.5376993  16.4401673  32.1156493  55.9766993  15.7431673  32.4036493
  55.7446993  17.0641673  32.6886493  55.6336993  16.4291673  32.2426493
  52.6336993   9.4031673  43.5456493  53.3556993   9.8911673  43.5086493
  52.3636993   9.3731673  42.7166493  52.7006993   9.4711673  43.4176493
  55.8636993   4.5741673  40.2806493  56.7096993   4.3841673  40.3786493
  55.4936993   3.7971673  40.1426493  55.9336993   4.4311673  40.2746493
  68.4806993  16.1581673  34.6076493  69.1746993  15.6911673  34.3596493
  67.9416993  15.5601673  34.9446493  68.5036993  16.0001673  34.6206493
  50.6846993   5.9121673  36.9356493  51.1736993   5.6201673  37.5966493
  50.8136993   5.3191673  36.3086493  50.7756993   5.7811673  36.9406493
  65.7196993   8.9341673  43.7866493  65.7126993   8.1581673  44.1846493
  64.8786993   9.1681673  43.7796493  65.5946993   8.8541673  43.8446493
  55.2096993   7.3461673  32.4216493  54.5996993   6.9411673  32.8956493
  54.8236993   7.4641673  31.6486493  55.0626993   7.3031673  32.3776493
  52.0286993  10.4551673  47.8236493  51.6076993   9.9371673  47.2626493
  51.6766993  11.2411673  47.6806493  51.9146993  10.4951673  47.7196493
  66.9756993   9.0051673  41.2236493  66.6896993   9.4061673  41.9436493
  67.8356993   8.9431673  41.3506493  67.0606993   9.0551673  41.3486493
  56.6646993   5.8071673  35.1316493  56.9366993   6.6331673  35.1986493
  55.8016993   5.8821673  35.0356493  56.5776993   5.9401673  35.1266493
  64.6376993   2.9291673  49.7636493  64.1126993   3.3881673  50.2876493
  64.2766993   2.1341673  49.7576493  64.5066993   2.8791673  49.8396493
  50.1446993   1.7771673  41.6676493  50.1886993   2.1211673  40.8666493
  50.8996993   2.0141673  42.0346493  50.2626993   1.8631673  41.6036493
  68.1066993  14.6381673  41.7526493  68.3966993  14.8951673  40.9716493
  68.8016993  14.7341673  42.2716493  68.2526993  14.6901673  41.7136493
  63.1296993   6.4981673  49.8396493  63.2026993   6.6021673  50.7026493
  62.4956993   7.0561673  49.6186493  63.0466993   6.5961673  49.9346493
  65.3976993   6.8171673  48.2046493  65.7166993   7.6031673  48.4076493
  65.0276993   6.5471673  48.9476493  65.3906993   6.8931673  48.3446493
  64.7116993  13.2411673  33.7346493  65.0456993  12.4351673  33.7696493
  63.9566993  13.1691673  34.1646493  64.6496993  13.1111673  33.8036493
  65.1936993   5.0751673  39.3936493  64.4486993   4.7521673  39.7116493
  65.1956993   5.9011673  39.6736493  65.0836993   5.1491673  39.4816493
  68.0956993   7.3591673  50.9396493  68.0436993   7.0181673  50.1386493
  68.8326993   7.8261673  50.9176493  68.1966993   7.3781673  50.8176493
  67.6336993  11.0351673  47.1456493  68.2616993  10.4861673  46.8896493
  67.5726993  11.6001673  46.4836493  67.7176993  11.0381673  47.0096493
  62.0856993  11.1161673  33.1376493  62.7696993  10.6021673  32.9686493
  61.6686993  11.1621673  32.3726493  62.1246993  11.0471673  32.9996493
  56.7676993  12.2661673  44.4416493  56.4696993  12.8581673  45.0086493
  56.8226993  12.7081673  43.6926493  56.7316993  12.4191673  44.4146493
  54.7466993  11.2161673  47.8396493  53.9406993  10.9261673  48.0066493
  54.6576993  12.0841673  47.8456493  54.6146993  11.3011673  47.8646493
  59.2836993   8.6891673  43.9326493  59.7596993   9.0631673  44.5606493
  58.4606993   8.8231673  44.1916493  59.2326993   8.7641673  44.0636493
  55.9936993   4.2921673  46.6736493  56.1546993   3.5481673  47.1006493
  55.9486993   4.0431673  45.8386493  56.0106993   4.1451673  46.6136493
  58.5476993  16.0821673  39.1606493  59.0936993  16.7611673  39.2146493
  58.1976993  16.1641673  38.3656493  58.5766993  16.1951673  39.0506493
  56.7306993  14.3101673  42.5496493  56.1066993  14.8921673  42.3676493
  56.9786993  14.0241673  41.7636493  56.6746993  14.3541673  42.4066493
  61.0396993  10.9441673  49.5386493  61.7966993  11.2301673  49.2126493
  60.4926993  10.9961673  48.8606493  61.0706993  10.9941673  49.3896493
  64.9486993  13.4941673  48.0426493  65.2946993  13.7641673  48.7966493
  65.2426993  14.0761673  47.4626493  65.0436993  13.6201673  48.0686493
  66.8116993   5.6401673  33.3816493  67.1896993   6.3171673  32.9816493
  65.9696993   5.8641673  33.4126493  66.7426993   5.7731673  33.3266493
  58.3246993   9.0861673  32.4646493  57.5196993   8.9091673  32.1796493
  58.2916993   9.9371673  32.6566493  58.2006993   9.1851673  32.4516493
  54.2546993   5.1531673  42.6146493  54.6946993   5.0501673  41.8686493
  54.7996993   4.8401673  43.2196493  54.3996993   5.0921673  42.5936493
  62.2706993   4.2551673  48.2066493  61.6226993   4.7251673  48.5546493
  62.8356993   4.1661673  48.8656493  62.2586993   4.3111673  48.3556493
  61.9586993   5.7921673  44.5046493  62.2606993   6.2121673  45.2076493
  61.9946993   4.9521673  44.7366493  62.0086993   5.7301673  44.6426493
  59.3836993  15.9591673  48.4296493  59.8616993  15.3591673  48.0136493
  59.0326993  15.5161673  49.0946493  59.4026993  15.8051673  48.4666493
  64.5066993   5.2391673  36.7566493  64.7136993   5.0381673  37.5806493
  65.2626993   5.5071673  36.4146493  64.6486993   5.2491673  36.8276493
  65.9716993   9.2661673  36.6106493  66.4476993   8.5371673  36.5626493
  65.1506993   8.9801673  36.5346493  65.9206993   9.1161673  36.5916493
  59.4426993  11.1781673  47.4496493  58.6476993  11.1141673  47.8006493
  59.5136993  12.0251673  47.2546493  59.3356993  11.2931673  47.4726493
  55.2726993  17.3851673  42.7666493  55.2836993  17.4441673  43.6366493
  54.8476993  16.6381673  42.6166493  55.2116993  17.2831673  42.8726493
  53.4306993   3.2801673  35.9216493  53.5566993   2.9511673  35.1236493
  52.6186993   3.0311673  36.1206493  53.3296993   3.1951673  35.8336493
  62.1876993  10.4331673  38.9656493  62.2636993  10.7741673  39.7646493
  62.3566993   9.5861673  39.0866493  62.2236993  10.3581673  39.1016493
  59.7096993   9.7071673  38.5306493  59.4116993   9.3921673  39.2876493
  60.4046993  10.1801673  38.7656493  59.7686993   9.7301673  38.6776493
  59.9316993  13.8251673  46.5576493  60.6186993  13.7111673  47.0826493
  60.0656993  14.6161673  46.2136493  60.0526993  13.9251673  46.5846493
  68.1076993   6.4341673  48.3686493  67.2526993   6.3121673  48.4946493
  68.2606993   6.0391673  47.6056493  68.0036993   6.3571673  48.2746493
  62.6206993   7.0991673  46.9446493  62.3656993   6.3801673  47.3666493
  63.4416993   7.2151673  47.2146493  62.7046993   7.0101673  47.0466493
  52.0366993  16.8831673  48.2086493  51.3826993  16.3141673  48.3066493
  51.6616993  17.6561673  48.3596493  51.8846993  16.9131673  48.2456493
  60.5546993   8.2891673  50.1316493  60.8776993   8.9751673  49.6996493
  59.8506993   8.6121673  50.5336493  60.4976993   8.4381673  50.1266493
  63.6386993  16.6631673  41.0606493  63.1876993  17.3061673  41.4396493
  64.3466993  16.5841673  41.5656493  63.6766993  16.7461673  41.1916493
  60.3396993  11.7531673  43.9906493  59.6456993  12.1551673  44.3336493
  61.0166993  12.1861673  44.3296493  60.3366993  11.8761673  44.0916493
  65.7166993  14.3461673  50.5706493  66.4926993  13.9561673  50.6536493
  65.2476993  14.0101673  51.2256493  65.7616993  14.2391673  50.6796493
  53.4076993   5.2911673  46.3376493  53.7826993   5.9101673  45.8506493
  54.0816993   4.8171673  46.6226493  53.5626993   5.3131673  46.3076493
  51.1826993   3.7391673  45.6126493  51.2596993   3.5701673  44.7596493
  51.9286993   4.1451673  45.8096493  51.3036993   3.7741673  45.5156493
  66.7416993   6.3791673  36.0526493  66.8446993   6.3211673  35.1886493
  67.4826993   6.0471673  36.3706493  66.8666993   6.3221673  35.9716493
  60.6616993  13.3441673  37.1596493  60.4566993  14.1771673  37.0006493
  59.8866993  12.9621673  37.2816493  60.5166993  13.4111673  37.1546493
  65.8436993   6.5251673  45.4086493  65.8416993   5.6621673  45.5326493
  65.9106993   6.8491673  46.2156493  65.8536993   6.4451673  45.5456493
  50.5796993   8.9651673  45.8366493  50.8996993   9.1841673  45.0556493
  50.4796993   8.1001673  45.7816493  50.6116993   8.8701673  45.7136493
  52.0356993   4.9011673  32.4546493  51.3636993   4.9151673  33.0106493
  52.1306993   4.0531673  32.2706493  51.9506993   4.7781673  32.5096493
  56.0236993  13.6061673  33.5686493  56.4646993  13.6861673  34.3166493
  55.2186993  13.3901673  33.8266493  55.9696993  13.5861673  33.7176493
  64.3146993   2.0311673  42.8446493  65.1696993   2.1301673  42.9896493
  63.9456993   2.5841673  43.4096493  64.3866993   2.1281673  42.9496493
  55.3426993   8.2571673  47.2216493  54.9466993   9.0311673  47.2966493
  54.9366993   7.8841673  46.5456493  55.2246993   8.3161673  47.1326493
  64.6186993   7.3111673  41.3356493  65.2846993   7.8521673  41.4956493
  64.2736993   7.6221673  40.5966493  64.6656993   7.4371673  41.2506493
  64.9316993  15.3771673  37.1426493  64.7576993  14.7231673  37.6926493
  65.6446993  15.1061673  36.7196493  65.0116993  15.2401673  37.1616493
  53.3526993  12.6761673  34.1696493  53.1086993  12.3691673  34.9496493
  53.3196993  11.9731673  33.6536493  53.3116993  12.5271673  34.2086493
  56.1716993  10.9211673  32.9126493  55.3536993  10.6531673  33.0526493
  56.1436993  11.7731673  33.0976493  56.0466993  11.0081673  32.9606493
  62.6066993  12.8301673  44.8336493  62.8126993  13.1311673  45.6256493
  62.5456993  13.5521673  44.3486493  62.6276993  12.9811673  44.8786493
  62.1406993  17.0441673  49.0796493  61.3876993  17.0261673  48.6386493
  62.3086993  17.8961673  49.1636493  62.0546993  17.1671673  49.0266493
  57.3776993   6.3111673  48.2496493  57.0556993   5.7351673  47.6796493
  57.0186993   7.0661673  48.0036493  57.2776993   6.3371673  48.1296493
  67.4186993  11.4691673  44.2916493  67.3866993  10.6071673  44.1566493
  66.7256993  11.7711673  43.8576493  67.3116993  11.3861673  44.2076493
  55.8126993  16.6671673  48.4976493  55.8536993  16.7931673  49.3606493
  56.4636993  16.1071673  48.3416493  55.9146993  16.6031673  48.6026493
  65.5236993  14.7291673  43.0886493  66.0506993  14.6461673  42.3976493
  65.1326993  13.9511673  43.1426493  65.5436993  14.6021673  42.9946493
  53.4056993  15.0501673  49.8576493  54.0006993  15.4811673  50.3296493
  53.0416993  15.6741673  49.3686493  53.4396993  15.2061673  49.8546493
  61.3966993   5.9811673  39.7896493  61.9476993   5.3741673  40.0896493
  60.9716993   6.2441673  40.5046493  61.4156993   5.9301673  39.9386493
  51.6446993   4.6311673  39.2756493  51.2766993   4.9331673  40.0066493
  52.1786993   4.0021673  39.5596493  51.6686993   4.5831673  39.4256493
  51.3326993  13.0391673  46.7866493  50.7586993  13.4551673  47.2956493
  52.0656993  13.5041673  46.8816493  51.3566993  13.1691673  46.8756493
  63.3666993   7.8121673  36.3516493  63.4346993   6.9621673  36.5326493
  62.5436993   7.8981673  36.0736493  63.2546993   7.6991673  36.3376493
  57.2856993   8.7031673  35.2896493  57.3856993   8.8421673  34.4346493
  58.1036993   8.6431673  35.5856493  57.4206993   8.7141673  35.2066493
  66.4456993  16.7671673  32.7696493  67.0826993  16.6331673  33.3506493
  66.1046993  15.9731673  32.6526493  66.4896993  16.6301673  32.8376493
  66.6406993   9.1851673  49.5026493  67.2746993   9.0151673  50.0766493
  67.0576993   9.5881673  48.8506493  66.7956993   9.2201673  49.4916493
  62.5206993  13.0321673  35.0916493  62.2696993  12.9041673  35.9176493
  62.2036993  12.3371673  34.6706493  62.4366993  12.9111673  35.1516493
  67.2656993   3.7491673  50.2406493  67.0696993   4.3931673  50.7956493
  66.5436993   3.2591673  50.2326493  67.1306993   3.7721673  50.3216493
  67.1646993   4.6901673  43.2116493  66.3316993   4.9401673  43.1396493
  67.1086993   3.8501673  43.4406493  67.0336993   4.6031673  43.2346493
  64.0516993   9.2961673  50.8576493  64.9226993   9.2601673  50.8216493
  63.8326993   9.7161673  50.1256493  64.1486993   9.3521673  50.7446493
  59.4066993  11.2401673  34.5216493  60.1236993  10.8931673  34.1656493
  59.3726993  12.0401673  34.1736493  59.5076993  11.3071673  34.4176493
  60.6246993   6.7971673  23.4314083  60.1006993   7.3931673  23.7944083
  61.0216993   6.4291673  24.1154083  60.6056993   6.8311673  23.5864083
  50.4936993  10.9371673  18.8874083  50.0526993  11.0551673  19.6304083
  50.2106993  10.1621673  18.6024083  50.3866993  10.8401673  18.9554083
  66.7686993  14.2381673  16.4024083  67.4696993  13.7191673  16.3984083
  66.1816993  13.7931673  15.9334083  66.7856993  14.0951673  16.3324083
  50.2366993   4.7291673  15.3944083  49.4586993   4.8911673  15.0344083
  50.2756993   3.8581673  15.4164083  50.1276993   4.6241673  15.3444083
  53.3756993   9.9921673  14.0664083  52.9836993   9.6211673  13.3804083
  53.2956993   9.3941673  14.6954083  53.3056993   9.8491673  14.0574083
  63.2956993   7.8641673  20.1074083  63.3756993   7.8681673  19.2384083
  62.7116993   7.2321673  20.2564083  63.2206993   7.7711673  20.0014083
  53.0026993  11.6331673  17.9664083  53.6106993  11.4631673  18.5694083
  52.2516993  11.4931673  18.3874083  52.9816993  11.5871673  18.1174083
  51.8936993  14.7241673  14.0434083  52.3606993  14.8081673  13.3114083
  52.3486993  14.1461673  14.5124083  52.0296993  14.6511673  14.0044083
  50.4336993  13.6721673  25.1424083  50.5626993  13.3921673  25.9584083
  49.8236993  13.1311673  24.8334083  50.3626993  13.5511673  25.2174083
  57.0076993  11.1971673  30.2094083  56.7716993  11.1941673  31.0494083
  56.2596993  11.0491673  29.7854083  56.8616993  11.1741673  30.2704083
  51.8796993   8.1931673  19.3444083  51.4176993   7.8011673  18.7174083
  52.5796993   7.6801673  19.4364083  51.9146993   8.0601673  19.2654083
  56.3876993   3.8031673  24.6914083  57.0656993   3.8211673  24.1424083
  56.3426993   2.9671673  24.9364083  56.4806993   3.6821673  24.6464083
  56.9896993  14.3891673  27.4724083  57.1276993  15.1491673  27.0654083
  57.7806993  14.0241673  27.4994083  57.1266993  14.4481673  27.4164083
  53.8806993   6.2931673  19.3674083  54.6976993   6.1061673  19.6104083
  53.4036993   5.6791673  19.7634083  53.9306993   6.1751673  19.4624083
  58.0846993  12.2741673  21.9774083  58.4326993  11.4751673  22.0074083
  58.7496993  12.7781673  21.7224083  58.2346993  12.2301673  21.9444083
  58.1416993  11.7231673  18.1884083  58.4726993  11.0791673  18.6744083
  58.3816993  11.5121673  17.3774083  58.2256993  11.5971673  18.1404083
  60.1096993   5.8541673  29.5274083  59.2616993   5.7551673  29.3494083
  60.1386993   6.5991673  29.9814083  59.9886993   5.9501673  29.5684083
  62.1296993   3.4551673  13.1554083  61.6796993   4.1361673  13.4624083
  62.2436993   2.9511673  13.8584083  62.0806993   3.4811673  13.3044083
  50.3356993   5.9541673  22.3574083  50.0796993   6.7851673  22.2824083
  49.6716993   5.5711673  22.7744083  50.1996993   6.0201673  22.4084083
  50.2456993  15.6641673  20.2574083  49.6536993  16.2221673  19.9444083
  50.6716993  15.3951673  19.5454083  50.2216993  15.7061673  20.1064083
  56.0856993  13.5081673  17.7374083  55.5066993  13.2331673  18.3294083
  56.7096993  12.8991673  17.7624083  56.0926993  13.3781673  17.8284083
  62.2286993  15.7961673  15.2594083  62.9556993  16.2681673  15.3614083
  62.4576993  15.0021673  15.5394083  62.3706993  15.7491673  15.3164083
  60.3966993  16.1881673  17.2494083  60.6106993  16.7151673  17.9114083
  61.1636993  16.0141673  16.8704083  60.5416993  16.2401673  17.2914083
  56.6706993   2.9041673  32.1464083  56.7876993   2.4501673  31.4104083
  56.9586993   3.7021673  31.9434083  56.7306993   2.9551673  32.0074083
  51.7906993  14.3341673  18.1884083  52.4466993  13.7591673  18.2034083
  52.1796993  15.0831673  17.9674083  51.9456993  14.3591673  18.1584083
  67.5236993   3.4281673  19.4504083  67.1776993   4.1061673  19.8764083
  66.8876993   2.8301673  19.4664083  67.3786993   3.4401673  19.5154083
  62.8356993  16.1981673  25.5544083  63.5796993  16.6541673  25.5444083
  62.7146993  15.9841673  24.7174083  62.9276993  16.2341673  25.4294083
  52.4036993   2.5011673  31.1304083  51.6256993   2.1111673  31.0584083
  52.8946993   2.0891673  30.5394083  52.3606993   2.3821673  31.0324083
  52.6086993  12.8211673  21.6884083  53.0316993  12.4651673  21.0144083
  52.9326993  12.3991673  22.3804083  52.7186993  12.7061673  21.6914083
  55.8396993  15.6731673  20.9844083  56.6836993  15.7771673  20.7894083
  55.5426993  16.4911673  21.0524083  55.9206993  15.8091673  20.9654083
  59.6466993   5.0701673  19.0714083  59.9336993   4.8381673  18.2814083
  60.3786993   5.1491673  19.5404083  59.7966993   5.0471673  19.0244083
  60.3686993   5.4091673  14.1924083  60.6496993   6.1971673  14.4414083
  59.5926993   5.5741673  13.8294083  60.2956993   5.5501673  14.1754083
  64.4096993  17.3831673  15.6594083  65.0746993  17.2351673  15.1144083
  64.7696993  17.3001673  16.4494083  64.5616993  17.3491673  15.6954083
  54.8376993  16.8921673  26.7244083  55.1296993  16.8251673  27.5444083
  54.2116993  16.2871673  26.6794083  54.7886993  16.7931673  26.8394083
  49.7516993   3.0491673  28.7164083  49.7476993   3.6361673  29.3624083
  50.3456993   3.3611673  28.1594083  49.8386993   3.1821673  28.7294083
  62.0896993  13.3831673  29.2584083  62.0556993  13.7651673  30.0424083
  62.9436993  13.3411673  29.0874083  62.2106993  13.4331673  29.3494083
  59.2276993  13.5801673  14.0084083  59.0466993  14.1251673  14.6654083
  59.9936993  13.8701673  13.7074083  59.3136993  13.7041673  14.0614083
  50.6886993   2.6441673  17.6314083  50.5746993   1.7801673  17.6624083
  50.2136993   2.9381673  18.3014083  50.6016993   2.5601673  17.7344083
  52.8306993  15.0541673  25.8464083  52.1326993  14.5461673  25.9724083
  53.0906993  14.8491673  25.0384083  52.7656993  14.9491673  25.7454083
  59.9926993   3.8521673  16.3764083  59.4846993   3.1901673  16.1224083
  60.0446993   4.3561673  15.6664083  59.9256993   3.8291673  16.2344083
  60.5416993  16.5471673  26.7564083  61.3096993  16.4671673  26.3504083
  59.9586993  16.4261673  26.1184083  60.5686993  16.5171673  26.6024083
  66.8186993  17.1501673  19.6574083  66.3636993  17.8671673  19.8584083
  66.2046993  16.5791673  19.4154083  66.6606993  17.1721673  19.6514083
  58.5906993   3.1601673  20.7894083  58.6646993   3.7281673  20.1314083
  58.7116993   3.6521673  21.4994083  58.6186993   3.3171673  20.7974083
  63.8156993  12.9951673  19.2014083  64.5166993  12.5131673  19.3904083
  63.1556993  12.4261673  19.2464083  63.8216993  12.8401673  19.2354083
  54.1916993  13.9051673  28.4134083  55.0326993  13.9681673  28.1914083
  54.1546993  14.3021673  29.1894083  54.3106993  13.9731673  28.4954083
  56.1546993   9.4161673  23.1624083  56.3266993   9.2061673  23.9914083
  55.4996993   8.8821673  22.9464083  56.0836993   9.3061673  23.2534083
  62.3826993   3.3301673  26.6774083  62.2876993   3.6491673  27.4834083
  61.7896993   2.6911673  26.6394083  62.2806993   3.2821673  26.7914083
  56.9046993   9.3541673  25.7524083  56.9576993  10.2011673  25.9544083
  56.6196993   8.9841673  26.4894083  56.8706993   9.4241673  25.8904083
  63.0816993  10.0491673  24.8824083  62.5676993   9.6371673  25.4534083
  62.9556993  10.8931673  25.0634083  62.9876993  10.1131673  24.9934083
  49.7256993  13.7251673  31.9634083  50.4816993  14.0741673  32.2214083
  49.9026993  12.8721673  31.9064083  49.8636993  13.6501673  31.9934083
  66.1026993   3.5101673  27.8214083  66.8746993   3.2851673  28.1584083
  65.6276993   3.7271673  28.5214083  66.1466993   3.5091673  27.9744083
  53.6466993   2.7931673  20.7914083  53.9186993   2.3631673  20.0834083
  53.4706993   2.1571673  21.3624083  53.6606993   2.6361673  20.7714083
  66.3346993  10.4881673  15.0094083  66.4536993  10.2011673  15.8244083
  67.1416993  10.5091673  14.6794083  66.4706993  10.4491673  15.0814083
  53.4706993  10.2201673  20.3404083  54.3216993  10.1401673  20.1674083
  53.1136993   9.5381673  19.9284083  53.5436993  10.1071673  20.2534083
  52.2376993  16.9451673  21.5774083  51.5646993  16.4471673  21.3324083
  52.6406993  17.1301673  20.8264083  52.1976993  16.8991673  21.4304083
  51.7876993   3.8951673  23.8734083  52.6306993   4.1151673  23.8304083
  51.3986993   4.4681673  23.3424083  51.8546993   4.0121673  23.7884083
  68.5686993  14.9971673  29.2634083  67.8866993  15.3071673  28.8164083
  68.1996993  14.5391673  29.9084083  68.4126993  14.9751673  29.2924083
  64.2296993   7.0251673  14.5944083  64.0096993   7.7561673  14.1724083
  63.7816993   7.0761673  15.3414083  64.1306993   7.1401673  14.6424083
  55.8386993  10.2271673  18.5754083  56.5516993  10.7221673  18.6654083
  56.0606993   9.6601673  17.9494083  55.9766993  10.2161673  18.4964083
  49.9946993  11.8701673  21.8954083  49.3276993  12.3581673  22.1714083
  50.6746993  12.4151673  21.9244083  49.9966993  12.0221673  21.9404083
  57.6416993   5.5801673  31.9914083  57.1576993   6.1571673  32.4334083
  57.6136993   5.8751673  31.1704083  57.5656993   5.7091673  31.9354083
  68.7396993   6.2641673  26.6034083  68.9546993   5.4641673  26.3274083
  67.8896993   6.3241673  26.4144083  68.6456993   6.1551673  26.5344083
  50.0606993   8.5541673  16.9984083  49.8756993   7.7151673  17.1504083
  50.7196993   8.5181673  16.4284083  50.1306993   8.4251673  16.9364083
  60.3616993  13.9301673  20.9024083  59.8386993  14.5641673  20.6094083
  60.6716993  13.5661673  20.1734083  60.3296993  13.9701673  20.7514083
  50.2326993  12.7181673  16.5734083  50.7846993  13.2871673  16.9374083
  50.0006993  12.2031673  17.2384083  50.2796993  12.7261673  16.7254083
  54.4366993  11.7181673  23.6624083  54.9036993  12.0071673  24.3404083
  55.0086993  11.2401673  23.2084083  54.5906993  11.6901673  23.6954083
  62.8726993   3.7321673  21.3994083  63.2166993   3.8841673  22.1864083
  62.4196993   2.9941673  21.5124083  62.8566993   3.6451673  21.5324083
  50.0626993  11.1671673  14.2014083  50.8186993  10.7351673  14.2594083
  50.0776993  11.6991673  14.8924083  50.1766993  11.1821673  14.3124083
  51.0026993   9.3881673  22.2064083  51.4336993   9.2591673  21.4594083
  50.7976993  10.2361673  22.1804083  51.0356993   9.4941673  22.0924083
  57.3486993   2.9521673  15.8564083  57.3466993   2.8351673  14.9914083
  57.1676993   3.8001673  15.9484083  57.3216993   3.0601673  15.7424083
  66.4026993  15.3791673  27.3534083  65.7316993  15.8931673  27.5714083
  66.4656993  15.4791673  26.4894083  66.3126993  15.4701673  27.2584083
  55.0866993  12.9041673  20.4884083  55.2126993  13.7471673  20.6754083
  55.7546993  12.5051673  20.8844083  55.2046993  12.9701673  20.5744083
  53.2166993   6.3871673  30.3504083  52.6806993   5.8811673  30.8184083
  53.2366993   5.9971673  29.5704083  53.1396993   6.2541673  30.3044083
  53.7016993   5.7841673  15.4904083  53.5736993   5.3361673  16.2284083
  53.1196993   5.4421673  14.9384083  53.5966993   5.6671673  15.5184083
  53.8686993   7.6141673  22.0894083  53.0876993   7.5551673  21.7064083
  53.9406993   6.8621673  22.5264083  53.7636993   7.4951673  22.0974083
  54.2986993   7.3511673  25.5574083  54.3236993   6.6761673  25.0064083
  53.6526993   7.8471673  25.2454083  54.2076993   7.3241673  25.4304083
  64.1936993   5.0641673  23.9534083  63.5316993   5.3921673  24.4164083
  64.3806993   5.6981673  23.3844083  64.1236993   5.2061673  23.9374083
  58.3986993  16.1281673  24.9494083  58.1216993  15.4871673  24.4264083
  58.1906993  16.8541673  24.5114083  58.3276993  16.1411673  24.8074083
  62.3866993   3.0331673  17.4644083  62.8766993   3.7501673  17.3874083
  61.5966993   3.2941673  17.2014083  62.3426993   3.1771673  17.4144083
  52.0976993   8.7061673  31.1164083  52.0606993   9.2071673  30.4024083
  52.4286993   7.9541673  30.8214083  52.1406993   8.6681673  30.9674083
  63.7006993  10.9111673  29.3744083  64.1846993  11.6291673  29.4724083
  64.0946993  10.4841673  28.7234083  63.8306993  10.9541673  29.2924083
  57.9966993  13.7561673  30.5514083  58.3506993  13.5781673  31.3284083
  57.5606993  13.0271673  30.3524083  57.9846993  13.6221673  30.6374083
  58.9686993   4.5031673  23.1894083  59.4486993   5.2021673  23.3974083
  59.3416993   3.8561673  23.6404083  59.0946993   4.5111673  23.2864083
  61.1576993   7.6721673  15.4634083  61.1496993   8.3941673  14.9734083
  60.5186993   7.8071673  16.0404083  61.0626993   7.7991673  15.4764083
  66.1296993  11.5421673  19.4444083  66.4856993  11.1921673  20.1594083
  66.1216993  10.8811673  18.8744083  66.1816993  11.3921673  19.4654083
  62.1746993  14.6081673  23.2884083  61.5716993  14.3121673  22.7314083
  62.7196993  15.0601673  22.7794083  62.1656993  14.6311673  23.1304083
  62.1876993  11.4591673  22.6884083  61.3906993  11.6831673  22.9624083
  62.4456993  10.8651673  23.2734083  62.1076993  11.4041673  22.8154083
  56.0796993  16.2711673  17.1364083  55.9326993  15.4951673  17.5074083
  56.7686993  16.1241673  16.6214083  56.1596993  16.1341673  17.1154083
  58.3716993  15.7871673  15.5384083  58.9936993  15.9501673  16.1284083
  58.4076993  16.4781673  15.0064083  58.4686993  15.9131673  15.5474083
  65.4476993   9.4571673  27.5344083  65.5026993   9.5821673  26.6724083
  66.2006993   9.7771673  27.8364083  65.5666993   9.5221673  27.4514083
  61.6386993  14.8061673  31.8114083  61.8026993  15.0891673  32.6204083
  61.9016993  15.4671673  31.3064083  61.7016993  14.9461673  31.8564083
  52.8726993   8.3211673  16.3674083  53.1966993   7.5421673  16.1454083
  53.5186993   8.6891673  16.8224083  53.0156993   8.2601673  16.4014083
  61.1786993   9.2631673  27.1344083  61.0236993   9.8731673  27.7384083
  61.7126993   8.7051673  27.5404083  61.2346993   9.2711673  27.2834083
  59.5626993   7.6631673  17.7924083  59.6216993   8.3131673  18.3714083
  59.3736993   6.9671673  18.2834083  59.5436993   7.6561673  17.9504083
  64.7886993  11.9921673  23.6614083  64.3096993  12.2901673  22.9954083
  64.4326993  11.2161673  23.8394083  64.6656993  11.9211673  23.5894083
  54.0586993   2.1801673  14.3044083  53.5476993   2.2331673  13.5984083
  54.8426993   2.4201673  14.0084083  54.0986993   2.2231673  14.1564083
  58.7856993   9.7101673  22.2234083  57.9386993   9.5161673  22.3044083
  59.1096993   9.5451673  23.0164083  58.7076993   9.6571673  22.3524083
  55.5376993  16.4401673  13.1094083  55.9766993  15.7431673  13.3974083
  55.7446993  17.0641673  13.6824083  55.6336993  16.4291673  13.2364083
  52.6336993   9.4031673  24.5394083  53.3556993   9.8911673  24.5024083
  52.3636993   9.3731673  23.7104083  52.7006993   9.4711673  24.4114083
  55.8636993   4.5741673  21.2744083  56.7096993   4.3841673  21.3724083
  55.4936993   3.7971673  21.1364083  55.9336993   4.4311673  21.2684083
  68.4806993  16.1581673  15.6014083  69.1746993  15.6911673  15.3534083
  67.9416993  15.5601673  15.9384083  68.5036993  16.0001673  15.6144083
  50.6846993   5.9121673  17.9294083  51.1736993   5.6201673  18.5904083
  50.8136993   5.3191673  17.3024083  50.7756993   5.7811673  17.9344083
  65.7196993   8.9341673  24.7804083  65.7126993   8.1581673  25.1784083
  64.8786993   9.1681673  24.7734083  65.5946993   8.8541673  24.8384083
  55.2096993   7.3461673  13.4154083  54.5996993   6.9411673  13.8894083
  54.8236993   7.4641673  12.6424083  55.0626993   7.3031673  13.3714083
  52.0286993  10.4551673  28.8174083  51.6076993   9.9371673  28.2564083
  51.6766993  11.2411673  28.6744083  51.9146993  10.4951673  28.7134083
  66.9756993   9.0051673  22.2174083  66.6896993   9.4061673  22.9374083
  67.8356993   8.9431673  22.3444083  67.0606993   9.0551673  22.3424083
  56.6646993   5.8071673  16.1254083  56.9366993   6.6331673  16.1924083
  55.8016993   5.8821673  16.0294083  56.5776993   5.9401673  16.1204083
  64.6376993   2.9291673  30.7574083  64.1126993   3.3881673  31.2814083
  64.2766993   2.1341673  30.7514083  64.5066993   2.8791673  30.8334083
  50.1446993   1.7771673  22.6614083  50.1886993   2.1211673  21.8604083
  50.8996993   2.0141673  23.0284083  50.2626993   1.8631673  22.5974083
  68.1066993  14.6381673  22.7464083  68.3966993  14.8951673  21.9654083
  68.8016993  14.7341673  23.2654083  68.2526993  14.6901673  22.7074083
  63.1296993   6.4981673  30.8334083  63.2026993   6.6021673  31.6964083
  62.4956993   7.0561673  30.6124083  63.0466993   6.5961673  30.9284083
  65.3976993   6.8171673  29.1984083  65.7166993   7.6031673  29.4014083
  65.0276993   6.5471673  29.9414083  65.3906993   6.8931673  29.3384083
  64.7116993  13.2411673  14.7284083  65.0456993  12.4351673  14.7634083
  63.9566993  13.1691673  15.1584083  64.6496993  13.1111673  14.7974083
  65.1936993   5.0751673  20.3874083  64.4486993   4.7521673  20.7054083
  65.1956993   5.9011673  20.6674083  65.0836993   5.1491673  20.4754083
  68.0956993   7.3591673  31.9334083  68.0436993   7.0181673  31.1324083
  68.8326993   7.8261673  31.9114083  68.1966993   7.3781673  31.8114083
  67.6336993  11.0351673  28.1394083  68.2616993  10.4861673  27.8834083
  67.5726993  11.6001673  27.4774083  67.7176993  11.0381673  28.0034083
  62.0856993  11.1161673  14.1314083  62.7696993  10.6021673  13.9624083
  61.6686993  11.1621673  13.3664083  62.1246993  11.0471673  13.9934083
  56.7676993  12.2661673  25.4354083  56.4696993  12.8581673  26.0024083
  56.8226993  12.7081673  24.6864083  56.7316993  12.4191673  25.4084083
  54.7466993  11.2161673  28.8334083  53.9406993  10.9261673  29.0004083
  54.6576993  12.0841673  28.8394083  54.6146993  11.3011673  28.8584083
  59.2836993   8.6891673  24.9264083  59.7596993   9.0631673  25.5544083
  58.4606993   8.8231673  25.1854083  59.2326993   8.7641673  25.0574083
  55.9936993   4.2921673  27.6674083  56.1546993   3.5481673  28.0944083
  55.9486993   4.0431673  26.8324083  56.0106993   4.1451673  27.6074083
  58.5476993  16.0821673  20.1544083  59.0936993  16.7611673  20.2084083
  58.1976993  16.1641673  19.3594083  58.5766993  16.1951673  20.0444083
  56.7306993  14.3101673  23.5434083  56.1066993  14.8921673  23.3614083
  56.9786993  14.0241673  22.7574083  56.6746993  14.3541673  23.4004083
  61.0396993  10.9441673  30.5324083  61.7966993  11.2301673  30.2064083
  60.4926993  10.9961673  29.8544083  61.0706993  10.9941673  30.3834083
  64.9486993  13.4941673  29.0364083  65.2946993  13.7641673  29.7904083
  65.2426993  14.0761673  28.4564083  65.0436993  13.6201673  29.0624083
  66.8116993   5.6401673  14.3754083  67.1896993   6.3171673  13.9754083
  65.9696993   5.8641673  14.4064083  66.7426993   5.7731673  14.3204083
  58.3246993   9.0861673  13.4584083  57.5196993   8.9091673  13.1734083
  58.2916993   9.9371673  13.6504083  58.2006993   9.1851673  13.4454083
  54.2546993   5.1531673  23.6084083  54.6946993   5.0501673  22.8624083
  54.7996993   4.8401673  24.2134083  54.3996993   5.0921673  23.5874083
  62.2706993   4.2551673  29.2004083  61.6226993   4.7251673  29.5484083
  62.8356993   4.1661673  29.8594083  62.2586993   4.3111673  29.3494083
  61.9586993   5.7921673  25.4984083  62.2606993   6.2121673  26.2014083
  61.9946993   4.9521673  25.7304083  62.0086993   5.7301673  25.6364083
  59.3836993  15.9591673  29.4234083  59.8616993  15.3591673  29.0074083
  59.0326993  15.5161673  30.0884083  59.4026993  15.8051673  29.4604083
  64.5066993   5.2391673  17.7504083  64.7136993   5.0381673  18.5744083
  65.2626993   5.5071673  17.4084083  64.6486993   5.2491673  17.8214083
  65.9716993   9.2661673  17.6044083  66.4476993   8.5371673  17.5564083
  65.1506993   8.9801673  17.5284083  65.9206993   9.1161673  17.5854083
  59.4426993  11.1781673  28.4434083  58.6476993  11.1141673  28.7944083
  59.5136993  12.0251673  28.2484083  59.3356993  11.2931673  28.4664083
  55.2726993  17.3851673  23.7604083  55.2836993  17.4441673  24.6304083
  54.8476993  16.6381673  23.6104083  55.2116993  17.2831673  23.8664083
  53.4306993   3.2801673  16.9154083  53.5566993   2.9511673  16.1174083
  52.6186993   3.0311673  17.1144083  53.3296993   3.1951673  16.8274083
  62.1876993  10.4331673  19.9594083  62.2636993  10.7741673  20.7584083
  62.3566993   9.5861673  20.0804083  62.2236993  10.3581673  20.0954083
  59.7096993   9.7071673  19.5244083  59.4116993   9.3921673  20.2814083
  60.4046993  10.1801673  19.7594083  59.7686993   9.7301673  19.6714083
  59.9316993  13.8251673  27.5514083  60.6186993  13.7111673  28.0764083
  60.0656993  14.6161673  27.2074083  60.0526993  13.9251673  27.5784083
  68.1076993   6.4341673  29.3624083  67.2526993   6.3121673  29.4884083
  68.2606993   6.0391673  28.5994083  68.0036993   6.3571673  29.2684083
  62.6206993   7.0991673  27.9384083  62.3656993   6.3801673  28.3604083
  63.4416993   7.2151673  28.2084083  62.7046993   7.0101673  28.0404083
  52.0366993  16.8831673  29.2024083  51.3826993  16.3141673  29.3004083
  51.6616993  17.6561673  29.3534083  51.8846993  16.9131673  29.2394083
  60.5546993   8.2891673  31.1254083  60.8776993   8.9751673  30.6934083
  59.8506993   8.6121673  31.5274083  60.4976993   8.4381673  31.1204083
  63.6386993  16.6631673  22.0544083  63.1876993  17.3061673  22.4334083
  64.3466993  16.5841673  22.5594083  63.6766993  16.7461673  22.1854083
  60.3396993  11.7531673  24.9844083  59.6456993  12.1551673  25.3274083
  61.0166993  12.1861673  25.3234083  60.3366993  11.8761673  25.0854083
  65.7166993  14.3461673  31.5644083  66.4926993  13.9561673  31.6474083
  65.2476993  14.0101673  32.2194083  65.7616993  14.2391673  31.6734083
  53.4076993   5.2911673  27.3314083  53.7826993   5.9101673  26.8444083
  54.0816993   4.8171673  27.6164083  53.5626993   5.3131673  27.3014083
  51.1826993   3.7391673  26.6064083  51.2596993   3.5701673  25.7534083
  51.9286993   4.1451673  26.8034083  51.3036993   3.7741673  26.5094083
  66.7416993   6.3791673  17.0464083  66.8446993   6.3211673  16.1824083
  67.4826993   6.0471673  17.3644083  66.8666993   6.3221673  16.9654083
  60.6616993  13.3441673  18.1534083  60.4566993  14.1771673  17.9944083
  59.8866993  12.9621673  18.2754083  60.5166993  13.4111673  18.1484083
  65.8436993   6.5251673  26.4024083  65.8416993   5.6621673  26.5264083
  65.9106993   6.8491673  27.2094083  65.8536993   6.4451673  26.5394083
  50.5796993   8.9651673  26.8304083  50.8996993   9.1841673  26.0494083
  50.4796993   8.1001673  26.7754083  50.6116993   8.8701673  26.7074083
  52.0356993   4.9011673  13.4484083  51.3636993   4.9151673  14.0044083
  52.1306993   4.0531673  13.2644083  51.9506993   4.7781673  13.5034083
  56.0236993  13.6061673  14.5624083  56.4646993  13.6861673  15.3104083
  55.2186993  13.3901673  14.8204083  55.9696993  13.5861673  14.7114083
  64.3146993   2.0311673  23.8384083  65.1696993   2.1301673  23.9834083
  63.9456993   2.5841673  24.4034083  64.3866993   2.1281673  23.9434083
  55.3426993   8.2571673  28.2154083  54.9466993   9.0311673  28.2904083
  54.9366993   7.8841673  27.5394083  55.2246993   8.3161673  28.1264083
  64.6186993   7.3111673  22.3294083  65.2846993   7.8521673  22.4894083
  64.2736993   7.6221673  21.5904083  64.6656993   7.4371673  22.2444083
  64.9316993  15.3771673  18.1364083  64.7576993  14.7231673  18.6864083
  65.6446993  15.1061673  17.7134083  65.0116993  15.2401673  18.1554083
  53.3526993  12.6761673  15.1634083  53.1086993  12.3691673  15.9434083
  53.3196993  11.9731673  14.6474083  53.3116993  12.5271673  15.2024083
  56.1716993  10.9211673  13.9064083  55.3536993  10.6531673  14.0464083
  56.1436993  11.7731673  14.0914083  56.0466993  11.0081673  13.9544083
  62.6066993  12.8301673  25.8274083  62.8126993  13.1311673  26.6194083
  62.5456993  13.5521673  25.3424083  62.6276993  12.9811673  25.8724083
  62.1406993  17.0441673  30.0734083  61.3876993  17.0261673  29.6324083
  62.3086993  17.8961673  30.1574083  62.0546993  17.1671673  30.0204083
  57.3776993   6.3111673  29.2434083  57.0556993   5.7351673  28.6734083
  57.0186993   7.0661673  28.9974083  57.2776993   6.3371673  29.1234083
  67.4186993  11.4691673  25.2854083  67.3866993  10.6071673  25.1504083
  66.7256993  11.7711673  24.8514083  67.3116993  11.3861673  25.2014083
  55.8126993  16.6671673  29.4914083  55.8536993  16.7931673  30.3544083
  56.4636993  16.1071673  29.3354083  55.9146993  16.6031673  29.5964083
  65.5236993  14.7291673  24.0824083  66.0506993  14.6461673  23.3914083
  65.1326993  13.9511673  24.1364083  65.5436993  14.6021673  23.9884083
  53.4056993  15.0501673  30.8514083  54.0006993  15.4811673  31.3234083
  53.0416993  15.6741673  30.3624083  53.4396993  15.2061673  30.8484083
  61.3966993   5.9811673  20.7834083  61.9476993   5.3741673  21.0834083
  60.9716993   6.2441673  21.4984083  61.4156993   5.9301673  20.9324083
  51.6446993   4.6311673  20.2694083  51.2766993   4.9331673  21.0004083
  52.1786993   4.0021673  20.5534083  51.6686993   4.5831673  20.4194083
  51.3326993  13.0391673  27.7804083  50.7586993  13.4551673  28.2894083
  52.0656993  13.5041673  27.8754083  51.3566993  13.1691673  27.8694083
  63.3666993   7.8121673  17.3454083  63.4346993   6.9621673  17.5264083
  62.5436993   7.8981673  17.0674083  63.2546993   7.6991673  17.3314083
  53.1186993  16.3061673  16.5554083  52.9736993  16.4621673  15.7094083
  53.9846993  16.3851673  16.6334083  53.2256993  16.3411673  16.4424083
  57.2856993   8.7031673  16.2834083  57.3856993   8.8421673  15.4284083
  58.1036993   8.6431673  16.5794083  57.4206993   8.7141673  16.2004083
  66.4456993  16.7671673  13.7634083  67.0826993  16.6331673  14.3444083
  66.1046993  15.9731673  13.6464083  66.4896993  16.6301673  13.8314083
  66.6406993   9.1851673  30.4964083  67.2746993   9.0151673  31.0704083
  67.0576993   9.5881673  29.8444083  66.7956993   9.2201673  30.4854083
  62.5206993  13.0321673  16.0854083  62.2696993  12.9041673  16.9114083
  62.2036993  12.3371673  15.6644083  62.4366993  12.9111673  16.1454083
  67.2656993   3.7491673  31.2344083  67.0696993   4.3931673  31.7894083
  66.5436993   3.2591673  31.2264083  67.1306993   3.7721673  31.3154083
  67.1646993   4.6901673  24.2054083  66.3316993   4.9401673  24.1334083
  67.1086993   3.8501673  24.4344083  67.0336993   4.6031673  24.2284083
  64.0516993   9.2961673  31.8514083  64.9226993   9.2601673  31.8154083
  63.8326993   9.7161673  31.1194083  64.1486993   9.3521673  31.7384083
  53.8056993  15.1211673  23.0324083  53.7266993  14.3111673  22.7164083
  53.3616993  15.6081673  22.4604083  53.7286993  15.0731673  22.9014083
  59.4066993  11.2401673  15.5154083  60.1236993  10.8931673  15.1594083
  59.3726993  12.0401673  15.1674083  59.5076993  11.3071673  15.4114083
  51.3776993  17.3651673  26.6134083  51.8706993  17.3091673  27.3314083
  51.5656993  16.6321673  26.1784083  51.4786993  17.2481673  26.6554083
  60.6246993   6.7971673   4.4251673  60.1006993   7.3931673   4.7881673
  61.0216993   6.4291673   5.1091673  60.6056993   6.8311673   4.5801673
  50.4336993  13.6721673   6.1361673  50.5626993  13.3921673   6.9521673
  49.8236993  13.1311673   5.8271673  50.3626993  13.5511673   6.2111673
  57.0076993  11.1971673  11.2031673  56.7716993  11.1941673  12.0431673
  56.2596993  11.0491673  10.7791673  56.8616993  11.1741673  11.2641673
  56.3876993   3.8031673   5.6851673  57.0656993   3.8211673   5.1361673
  56.3426993   2.9671673   5.9301673  56.4806993   3.6821673   5.6401673
  56.9896993  14.3891673   8.4661673  57.1276993  15.1491673   8.0591673
  57.7806993  14.0241673   8.4931673  57.1266993  14.4481673   8.4101673
  58.0846993  12.2741673   2.9711673  58.4326993  11.4751673   3.0011673
  58.7496993  12.7781673   2.7161673  58.2346993  12.2301673   2.9381673
  60.1096993   5.8541673  10.5211673  59.2616993   5.7551673  10.3431673
  60.1386993   6.5991673  10.9751673  59.9886993   5.9501673  10.5621673
  50.3356993   5.9541673   3.3511673  50.0796993   6.7851673   3.2761673
  49.6716993   5.5711673   3.7681673  50.1996993   6.0201673   3.4021673
  56.6706993   2.9041673  13.1401673  56.7876993   2.4501673  12.4041673
  56.9586993   3.7021673  12.9371673  56.7306993   2.9551673  13.0011673
  62.8356993  16.1981673   6.5481673  63.5796993  16.6541673   6.5381673
  62.7146993  15.9841673   5.7111673  62.9276993  16.2341673   6.4231673
  52.4036993   2.5011673  12.1241673  51.6256993   2.1111673  12.0521673
  52.8946993   2.0891673  11.5331673  52.3606993   2.3821673  12.0261673
  52.6086993  12.8211673   2.6821673  53.0316993  12.4651673   2.0081673
  52.9326993  12.3991673   3.3741673  52.7186993  12.7061673   2.6851673
  55.8396993  15.6731673   1.9781673  56.6836993  15.7771673   1.7831673
  55.5426993  16.4911673   2.0461673  55.9206993  15.8091673   1.9591673
  54.8376993  16.8921673   7.7181673  55.1296993  16.8251673   8.5381673
  54.2116993  16.2871673   7.6731673  54.7886993  16.7931673   7.8331673
  49.7516993   3.0491673   9.7101673  49.7476993   3.6361673  10.3561673
  50.3456993   3.3611673   9.1531673  49.8386993   3.1821673   9.7231673
  62.0896993  13.3831673  10.2521673  62.0556993  13.7651673  11.0361673
  62.9436993  13.3411673  10.0811673  62.2106993  13.4331673  10.3431673
  52.8306993  15.0541673   6.8401673  52.1326993  14.5461673   6.9661673
  53.0906993  14.8491673   6.0321673  52.7656993  14.9491673   6.7391673
  60.5416993  16.5471673   7.7501673  61.3096993  16.4671673   7.3441673
  59.9586993  16.4261673   7.1121673  60.5686993  16.5171673   7.5961673
  54.1916993  13.9051673   9.4071673  55.0326993  13.9681673   9.1851673
  54.1546993  14.3021673  10.1831673  54.3106993  13.9731673   9.4891673
  56.1546993   9.4161673   4.1561673  56.3266993   9.2061673   4.9851673
  55.4996993   8.8821673   3.9401673  56.0836993   9.3061673   4.2471673
  62.3826993   3.3301673   7.6711673  62.2876993   3.6491673   8.4771673
  61.7896993   2.6911673   7.6331673  62.2806993   3.2821673   7.7851673
  56.9046993   9.3541673   6.7461673  56.9576993  10.2011673   6.9481673
  56.6196993   8.9841673   7.4831673  56.8706993   9.4241673   6.8841673
  63.0816993  10.0491673   5.8761673  62.5676993   9.6371673   6.4471673
  62.9556993  10.8931673   6.0571673  62.9876993  10.1131673   5.9871673
  49.7256993  13.7251673  12.9571673  50.4816993  14.0741673  13.2151673
  49.9026993  12.8721673  12.9001673  49.8636993  13.6501673  12.9871673
  66.1026993   3.5101673   8.8151673  66.8746993   3.2851673   9.1521673
  65.6276993   3.7271673   9.5151673  66.1466993   3.5091673   8.9681673
  52.2376993  16.9451673   2.5711673  51.5646993  16.4471673   2.3261673
  52.6406993  17.1301673   1.8201673  52.1976993  16.8991673   2.4241673
  51.7876993   3.8951673   4.8671673  52.6306993   4.1151673   4.8241673
  51.3986993   4.4681673   4.3361673  51.8546993   4.0121673   4.7821673
  68.5686993  14.9971673  10.2571673  67.8866993  15.3071673   9.8101673
  68.1996993  14.5391673  10.9021673  68.4126993  14.9751673  10.2861673
  49.9946993  11.8701673   2.8891673  49.3276993  12.3581673   3.1651673
  50.6746993  12.4151673   2.9181673  49.9966993  12.0221673   2.9341673
  57.6416993   5.5801673  12.9851673  57.1576993   6.1571673  13.4271673
  57.6136993   5.8751673  12.1641673  57.5656993   5.7091673  12.9291673
  68.7396993   6.2641673   7.5971673  68.9546993   5.4641673   7.3211673
  67.8896993   6.3241673   7.4081673  68.6456993   6.1551673   7.5281673
  54.4366993  11.7181673   4.6561673  54.9036993  12.0071673   5.3341673
  55.0086993  11.2401673   4.2021673  54.5906993  11.6901673   4.6891673
  62.8726993   3.7321673   2.3931673  63.2166993   3.8841673   3.1801673
  62.4196993   2.9941673   2.5061673  62.8566993   3.6451673   2.5261673
  51.0026993   9.3881673   3.2001673  51.4336993   9.2591673   2.4531673
  50.7976993  10.2361673   3.1741673  51.0356993   9.4941673   3.0861673
  66.4026993  15.3791673   8.3471673  65.7316993  15.8931673   8.5651673
  66.4656993  15.4791673   7.4831673  66.3126993  15.4701673   8.2521673
  53.2166993   6.3871673  11.3441673  52.6806993   5.8811673  11.8121673
  53.2366993   5.9971673  10.5641673  53.1396993   6.2541673  11.2981673
  53.8686993   7.6141673   3.0831673  53.0876993   7.5551673   2.7001673
  53.9406993   6.8621673   3.5201673  53.7636993   7.4951673   3.0911673
  54.2986993   7.3511673   6.5511673  54.3236993   6.6761673   6.0001673
  53.6526993   7.8471673   6.2391673  54.2076993   7.3241673   6.4241673
  64.1936993   5.0641673   4.9471673  63.5316993   5.3921673   5.4101673
  64.3806993   5.6981673   4.3781673  64.1236993   5.2061673   4.9311673
  58.3986993  16.1281673   5.9431673  58.1216993  15.4871673   5.4201673
  58.1906993  16.8541673   5.5051673  58.3276993  16.1411673   5.8011673
  52.0976993   8.7061673  12.1101673  52.0606993   9.2071673  11.3961673
  52.4286993   7.9541673  11.8151673  52.1406993   8.6681673  11.9611673
  63.7006993  10.9111673  10.3681673  64.1846993  11.6291673  10.4661673
  64.0946993  10.4841673   9.7171673  63.8306993  10.9541673  10.2861673
  57.9966993  13.7561673  11.5451673  58.3506993  13.5781673  12.3221673
  57.5606993  13.0271673  11.3461673  57.9846993  13.6221673  11.6311673
  58.9686993   4.5031673   4.1831673  59.4486993   5.2021673   4.3911673
  59.3416993   3.8561673   4.6341673  59.0946993   4.5111673   4.2801673
  62.1746993  14.6081673   4.2821673  61.5716993  14.3121673   3.7251673
  62.7196993  15.0601673   3.7731673  62.1656993  14.6311673   4.1241673
  62.1876993  11.4591673   3.6821673  61.3906993  11.6831673   3.9561673
  62.4456993  10.8651673   4.2671673  62.1076993  11.4041673   3.8091673
  65.4476993   9.4571673   8.5281673  65.5026993   9.5821673   7.6661673
  66.2006993   9.7771673   8.8301673  65.5666993   9.5221673   8.4451673
  61.6386993  14.8061673  12.8051673  61.8026993  15.0891673  13.6141673
  61.9016993  15.4671673  12.3001673  61.7016993  14.9461673  12.8501673
  61.1786993   9.2631673   8.1281673  61.0236993   9.8731673   8.7321673
  61.7126993   8.7051673   8.5341673  61.2346993   9.2711673   8.2771673
  64.7886993  11.9921673   4.6551673  64.3096993  12.2901673   3.9891673
  64.4326993  11.2161673   4.8331673  64.6656993  11.9211673   4.5831673
  58.7856993   9.7101673   3.2171673  57.9386993   9.5161673   3.2981673
  59.1096993   9.5451673   4.0101673  58.7076993   9.6571673   3.3461673
  52.6336993   9.4031673   5.5331673  53.3556993   9.8911673   5.4961673
  52.3636993   9.3731673   4.7041673  52.7006993   9.4711673   5.4051673
  55.8636993   4.5741673   2.2681673  56.7096993   4.3841673   2.3661673
  55.4936993   3.7971673   2.1301673  55.9336993   4.4311673   2.2621673
  65.7196993   8.9341673   5.7741673  65.7126993   8.1581673   6.1721673
  64.8786993   9.1681673   5.7671673  65.5946993   8.8541673   5.8321673
  52.0286993  10.4551673   9.8111673  51.6076993   9.9371673   9.2501673
  51.6766993  11.2411673   9.6681673  51.9146993  10.4951673   9.7071673
  66.9756993   9.0051673   3.2111673  66.6896993   9.4061673   3.9311673
  67.8356993   8.9431673   3.3381673  67.0606993   9.0551673   3.3361673
  64.6376993   2.9291673  11.7511673  64.1126993   3.3881673  12.2751673
  64.2766993   2.1341673  11.7451673  64.5066993   2.8791673  11.8271673
  50.1446993   1.7771673   3.6551673  50.1886993   2.1211673   2.8541673
  50.8996993   2.0141673   4.0221673  50.2626993   1.8631673   3.5911673
  68.1066993  14.6381673   3.7401673  68.3966993  14.8951673   2.9591673
  68.8016993  14.7341673   4.2591673  68.2526993  14.6901673   3.7011673
  63.1296993   6.4981673  11.8271673  63.2026993   6.6021673  12.6901673
  62.4956993   7.0561673  11.6061673  63.0466993   6.5961673  11.9221673
  65.3976993   6.8171673  10.1921673  65.7166993   7.6031673  10.3951673
  65.0276993   6.5471673  10.9351673  65.3906993   6.8931673  10.3321673
  68.0956993   7.3591673  12.9271673  68.0436993   7.0181673  12.1261673
  68.8326993   7.8261673  12.9051673  68.1966993   7.3781673  12.8051673
  67.6336993  11.0351673   9.1331673  68.2616993  10.4861673   8.8771673
  67.5726993  11.6001673   8.4711673  67.7176993  11.0381673   8.9971673
  56.7676993  12.2661673   6.4291673  56.4696993  12.8581673   6.9961673
  56.8226993  12.7081673   5.6801673  56.7316993  12.4191673   6.4021673
  54.7466993  11.2161673   9.8271673  53.9406993  10.9261673   9.9941673
  54.6576993  12.0841673   9.8331673  54.6146993  11.3011673   9.8521673
  59.2836993   8.6891673   5.9201673  59.7596993   9.0631673   6.5481673
  58.4606993   8.8231673   6.1791673  59.2326993   8.7641673   6.0511673
  55.9936993   4.2921673   8.6611673  56.1546993   3.5481673   9.0881673
  55.9486993   4.0431673   7.8261673  56.0106993   4.1451673   8.6011673
  56.7306993  14.3101673   4.5371673  56.1066993  14.8921673   4.3551673
  56.9786993  14.0241673   3.7511673  56.6746993  14.3541673   4.3941673
  61.0396993  10.9441673  11.5261673  61.7966993  11.2301673  11.2001673
  60.4926993  10.9961673  10.8481673  61.0706993  10.9941673  11.3771673
  64.9486993  13.4941673  10.0301673  65.2946993  13.7641673  10.7841673
  65.2426993  14.0761673   9.4501673  65.0436993  13.6201673  10.0561673
  54.2546993   5.1531673   4.6021673  54.6946993   5.0501673   3.8561673
  54.7996993   4.8401673   5.2071673  54.3996993   5.0921673   4.5811673
  62.2706993   4.2551673  10.1941673  61.6226993   4.7251673  10.5421673
  62.8356993   4.1661673  10.8531673  62.2586993   4.3111673  10.3431673
  61.9586993   5.7921673   6.4921673  62.2606993   6.2121673   7.1951673
  61.9946993   4.9521673   6.7241673  62.0086993   5.7301673   6.6301673
  59.3836993  15.9591673  10.4171673  59.8616993  15.3591673  10.0011673
  59.0326993  15.5161673  11.0821673  59.4026993  15.8051673  10.4541673
  59.4426993  11.1781673   9.4371673  58.6476993  11.1141673   9.7881673
  59.5136993  12.0251673   9.2421673  59.3356993  11.2931673   9.4601673
  55.2726993  17.3851673   4.7541673  55.2836993  17.4441673   5.6241673
  54.8476993  16.6381673   4.6041673  55.2116993  17.2831673   4.8601673
  59.9316993  13.8251673   8.5451673  60.6186993  13.7111673   9.0701673
  60.0656993  14.6161673   8.2011673  60.0526993  13.9251673   8.5721673
  68.1076993   6.4341673  10.3561673  67.2526993   6.3121673  10.4821673
  68.2606993   6.0391673   9.5931673  68.0036993   6.3571673  10.2621673
  62.6206993   7.0991673   8.9321673  62.3656993   6.3801673   9.3541673
  63.4416993   7.2151673   9.2021673  62.7046993   7.0101673   9.0341673
  52.0366993  16.8831673  10.1961673  51.3826993  16.3141673  10.2941673
  51.6616993  17.6561673  10.3471673  51.8846993  16.9131673  10.2331673
  60.5546993   8.2891673  12.1191673  60.8776993   8.9751673  11.6871673
  59.8506993   8.6121673  12.5211673  60.4976993   8.4381673  12.1141673
  63.6386993  16.6631673   3.0481673  63.1876993  17.3061673   3.4271673
  64.3466993  16.5841673   3.5531673  63.6766993  16.7461673   3.1791673
  60.3396993  11.7531673   5.9781673  59.6456993  12.1551673   6.3211673
  61.0166993  12.1861673   6.3171673  60.3366993  11.8761673   6.0791673
  65.7166993  14.3461673  12.5581673  66.4926993  13.9561673  12.6411673
  65.2476993  14.0101673  13.2131673  65.7616993  14.2391673  12.6671673
  53.4076993   5.2911673   8.3251673  53.7826993   5.9101673   7.8381673
  54.0816993   4.8171673   8.6101673  53.5626993   5.3131673   8.2951673
  51.1826993   3.7391673   7.6001673  51.2596993   3.5701673   6.7471673
  51.9286993   4.1451673   7.7971673  51.3036993   3.7741673   7.5031673
  65.8436993   6.5251673   7.3961673  65.8416993   5.6621673   7.5201673
  65.9106993   6.8491673   8.2031673  65.8536993   6.4451673   7.5331673
  50.5796993   8.9651673   7.8241673  50.8996993   9.1841673   7.0431673
  50.4796993   8.1001673   7.7691673  50.6116993   8.8701673   7.7011673
  64.3146993   2.0311673   4.8321673  65.1696993   2.1301673   4.9771673
  63.9456993   2.5841673   5.3971673  64.3866993   2.1281673   4.9371673
  55.3426993   8.2571673   9.2091673  54.9466993   9.0311673   9.2841673
  54.9366993   7.8841673   8.5331673  55.2246993   8.3161673   9.1201673
  64.6186993   7.3111673   3.3231673  65.2846993   7.8521673   3.4831673
  64.2736993   7.6221673   2.5841673  64.6656993   7.4371673   3.2381673
  62.6066993  12.8301673   6.8211673  62.8126993  13.1311673   7.6131673
  62.5456993  13.5521673   6.3361673  62.6276993  12.9811673   6.8661673
  62.1406993  17.0441673  11.0671673  61.3876993  17.0261673  10.6261673
  62.3086993  17.8961673  11.1511673  62.0546993  17.1671673  11.0141673
  57.3776993   6.3111673  10.2371673  57.0556993   5.7351673   9.6671673
  57.0186993   7.0661673   9.9911673  57.2776993   6.3371673  10.1171673
  67.4186993  11.4691673   6.2791673  67.3866993  10.6071673   6.1441673
  66.7256993  11.7711673   5.8451673  67.3116993  11.3861673   6.1951673
  55.8126993  16.6671673  10.4851673  55.8536993  16.7931673  11.3481673
  56.4636993  16.1071673  10.3291673  55.9146993  16.6031673  10.5901673
  65.5236993  14.7291673   5.0761673  66.0506993  14.6461673   4.3851673
  65.1326993  13.9511673   5.1301673  65.5436993  14.6021673   4.9821673
  53.4056993  15.0501673  11.8451673  54.0006993  15.4811673  12.3171673
  53.0416993  15.6741673  11.3561673  53.4396993  15.2061673  11.8421673
  61.3966993   5.9811673   1.7771673  61.9476993   5.3741673   2.0771673
  60.9716993   6.2441673   2.4921673  61.4156993   5.9301673   1.9261673
  51.3326993  13.0391673   8.7741673  50.7586993  13.4551673   9.2831673
  52.0656993  13.5041673   8.8691673  51.3566993  13.1691673   8.8631673
  66.6406993   9.1851673  11.4901673  67.2746993   9.0151673  12.0641673
  67.0576993   9.5881673  10.8381673  66.7956993   9.2201673  11.4791673
  67.2656993   3.7491673  12.2281673  67.0696993   4.3931673  12.7831673
  66.5436993   3.2591673  12.2201673  67.1306993   3.7721673  12.3091673
  67.1646993   4.6901673   5.1991673  66.3316993   4.9401673   5.1271673
  67.1086993   3.8501673   5.4281673  67.0336993   4.6031673   5.2221673
  64.0516993   9.2961673  12.8451673  64.9226993   9.2601673  12.8091673
  63.8326993   9.7161673  12.1131673  64.1486993   9.3521673  12.7321673
  53.8056993  15.1211673   4.0261673  53.7266993  14.3111673   3.7101673
  53.3616993  15.6081673   3.4541673  53.7286993  15.0731673   3.8951673
  51.3776993  17.3651673   7.6071673  51.8706993  17.3091673   8.3251673
  51.5656993  16.6321673   7.1721673  51.4786993  17.2481673   7.6491673
  41.9508553  73.7935993  75.7791313  41.7058553  74.2815993  75.0991313
  42.8138553  73.7205993  75.6791313  42.0418553  73.8545993  75.6641313
  41.7598553  80.7095993  80.4501313  41.2358553  81.3055993  80.8131313
  42.1568553  80.3415993  81.1341313  41.7408553  80.7435993  80.6051313
  31.6288553  84.8495993  75.9061313  31.1878553  84.9675993  76.6491313
  31.3458553  84.0745993  75.6211313  31.5218553  84.7525993  75.9741313
  47.9038553  88.1505993  73.4211313  48.6048553  87.6315993  73.4171313
  47.3168553  87.7055993  72.9521313  47.9208553  88.0075993  73.3511313
  31.3718553  78.6415993  72.4131313  30.5938553  78.8035993  72.0531313
  31.4108553  77.7705993  72.4351313  31.2628553  78.5365993  72.3631313
  34.5108553  83.9045993  71.0851313  34.1188553  83.5335993  70.3991313
  34.4308553  83.3065993  71.7141313  34.4408553  83.7615993  71.0761313
  44.4308553  81.7765993  77.1261313  44.5108553  81.7805993  76.2571313
  43.8468553  81.1445993  77.2751313  44.3558553  81.6835993  77.0201313
  34.1378553  85.5455993  74.9851313  34.7458553  85.3755993  75.5881313
  33.3868553  85.4055993  75.4061313  34.1168553  85.4995993  75.1361313
  38.4198553  74.8805993  74.9341313  38.3498553  75.5575993  74.3881313
  39.1608553  74.4925993  74.6851313  38.5188553  74.9235993  74.8161313
  33.0288553  88.6365993  71.0621313  33.4958553  88.7205993  70.3301313
  33.4838553  88.0585993  71.5311313  33.1648553  88.5635993  71.0231313
  33.0148553  82.1055993  76.3631313  32.5528553  81.7135993  75.7361313
  33.7148553  81.5925993  76.4551313  33.0498553  81.9725993  76.2841313
  35.0158553  80.2055993  76.3861313  35.8328553  80.0185993  76.6291313
  34.5388553  79.5915993  76.7821313  35.0658553  80.0875993  76.4811313
  39.2198553  86.1865993  78.9961313  39.5678553  85.3875993  79.0261313
  39.8848553  86.6905993  78.7411313  39.3698553  86.1425993  78.9631313
  39.2768553  85.6355993  75.2071313  39.6078553  84.9915993  75.6931313
  39.5168553  85.4245993  74.3961313  39.3608553  85.5095993  75.1591313
  35.6128553  75.2995993  75.6521313  35.3168553  75.8005993  75.0021313
  36.4798553  75.3775993  75.5951313  35.6968553  75.3855993  75.5481313
  38.5918553  74.4415993  77.8751313  38.6648553  75.3015993  78.0041313
  38.5538553  74.3665993  77.0071313  38.5968553  74.5575993  77.7661313
  43.2648553  77.3675993  70.1741313  42.8148553  78.0485993  70.4811313
  43.3788553  76.8635993  70.8771313  43.2158553  77.3935993  70.3231313
  31.4708553  79.8665993  79.3761313  31.2148553  80.6975993  79.3011313
  30.8068553  79.4835993  79.7931313  31.3348553  79.9325993  79.4271313
  37.2208553  87.4205993  74.7561313  36.6418553  87.1455993  75.3481313
  37.8448553  86.8115993  74.7811313  37.2278553  87.2905993  74.8471313
  34.4998553  74.6835993  79.8671313  33.9788553  74.0555993  79.5591313
  35.0908553  74.2465993  80.3381313  34.5108553  74.5255993  79.8911313
  32.9258553  88.2465993  75.2071313  33.5818553  87.6715993  75.2221313
  33.3148553  88.9955993  74.9861313  33.0808553  88.2715993  75.1771313
  48.6588553  77.3405993  76.4691313  48.3128553  78.0185993  76.8951313
  48.0228553  76.7425993  76.4851313  48.5138553  77.3525993  76.5341313
  33.7438553  86.7335993  78.7071313  34.1668553  86.3775993  78.0331313
  34.0678553  86.3115993  79.3991313  33.8538553  86.6185993  78.7101313
  40.7818553  78.9825993  76.0901313  41.0688553  78.7505993  75.3001313
  41.5138553  79.0615993  76.5591313  40.9318553  78.9595993  76.0431313
  41.5038553  79.3215993  71.2111313  41.7848553  80.1095993  71.4601313
  40.7278553  79.4865993  70.8481313  41.4308553  79.4625993  71.1941313
  40.3628553  87.4925993  71.0271313  40.1818553  88.0375993  71.6841313
  41.1288553  87.7825993  70.7261313  40.4488553  87.6165993  71.0801313
  43.8698553  75.3885993  72.0811313  44.4098553  74.7065993  72.1571313
  43.9318553  75.7865993  72.8551313  43.9588553  75.3465993  72.2071313
  31.8238553  76.5565993  74.6501313  31.7098553  75.6925993  74.6811313
  31.3488553  76.8505993  75.3201313  31.7368553  76.4725993  74.7531313
  41.1278553  77.7645993  73.3951313  40.6198553  77.1025993  73.1411313
  41.1798553  78.2685993  72.6851313  41.0608553  77.7415993  73.2531313
  41.1278553  74.7055993  73.2861313  40.6728553  74.3035993  72.6601313
  41.9008553  74.8605993  72.9111313  41.1748553  74.6695993  73.1381313
  39.7258553  77.0725993  77.8081313  39.7998553  77.6405993  77.1501313
  39.8468553  77.5645993  78.5181313  39.7538553  77.2295993  77.8161313
  44.9508553  86.9075993  76.2201313  45.6518553  86.4255993  76.4091313
  44.2908553  86.3385993  76.2651313  44.9568553  86.7525993  76.2541313
  34.3338553  72.8955993  76.1561313  34.8698553  73.5835993  76.1461313
  34.3368553  72.6215993  75.3281313  34.4128553  72.9565993  76.0321313
  37.2898553  83.3285993  80.1811313  37.4618553  83.1185993  81.0101313
  36.6348553  82.7945993  79.9651313  37.2188553  83.2185993  80.2721313
  44.7738553  73.1865993  76.5321313  44.8228553  72.8685993  77.3431313
  45.0968553  72.5425993  76.0391313  44.8288553  73.0445993  76.5791313
  34.7818553  76.7055993  77.8101313  35.0538553  76.2755993  77.1021313
  34.6058553  76.0695993  78.3811313  34.7958553  76.5485993  77.7901313
  47.4698553  84.4005993  72.0281313  47.5888553  84.1135993  72.8431313
  48.2768553  84.4215993  71.6981313  47.6058553  84.3615993  72.1001313
  34.6058553  84.1325993  77.3591313  35.4568553  84.0525993  77.1861313
  34.2488553  83.4505993  76.9471313  34.6788553  84.0195993  77.2721313
  32.9228553  77.8075993  80.8921313  33.7658553  78.0275993  80.8491313
  32.5338553  78.3805993  80.3611313  32.9898553  77.9245993  80.8071313
  45.3648553  80.9375993  71.6131313  45.1448553  81.6685993  71.1911313
  44.9168553  80.9885993  72.3601313  45.2658553  81.0525993  71.6611313
  36.9738553  84.1395993  75.5941313  37.6868553  84.6345993  75.6841313
  37.1958553  83.5725993  74.9681313  37.1118553  84.1285993  75.5151313
  49.5518553  75.7985993  71.0661313  48.8898553  75.2305993  71.0891313
  49.3588553  76.3105993  70.3861313  49.4258553  75.7905993  70.9691313
  31.1298553  85.7825993  78.9141313  30.4628553  86.2705993  79.1901313
  31.8098553  86.3275993  78.9431313  31.1318553  85.9345993  78.9591313
  31.1958553  82.4665993  74.0171313  31.0108553  81.6275993  74.1691313
  31.8548553  82.4305993  73.4471313  31.2658553  82.3375993  73.9551313
  47.5538553  75.3565993  73.3451313  48.2998553  74.9495993  73.5441313
  47.8168553  76.0715993  72.9201313  47.7028553  75.4025993  73.3121313
  41.4968553  87.8425993  77.9211313  40.9738553  88.4765993  77.6281313
  41.8068553  87.4785993  77.1921313  41.4648553  87.8825993  77.7701313
  31.3678553  86.6305993  73.5921313  31.9198553  87.1995993  73.9561313
  31.1358553  86.1155993  74.2571313  31.4148553  86.6385993  73.7441313
  35.5718553  85.6305993  80.6811313  36.0388553  85.9195993  81.3591313
  36.1438553  85.1525993  80.2271313  35.7258553  85.6025993  80.7141313
  44.0078553  77.6445993  78.4181313  44.3518553  77.7965993  79.2051313
  43.5548553  76.9065993  78.5311313  43.9918553  77.5575993  78.5511313
  31.1978553  85.0795993  71.2201313  31.9538553  84.6475993  71.2781313
  31.2128553  85.6115993  71.9111313  31.3118553  85.0945993  71.3311313
  32.1378553  83.3005993  79.2251313  32.5688553  83.1715993  78.4781313
  31.9328553  84.1485993  79.1991313  32.1708553  83.4065993  79.1111313
  38.4838553  76.8645993  72.8751313  38.4818553  76.7475993  72.0101313
  38.3028553  77.7125993  72.9671313  38.4568553  76.9725993  72.7611313
  36.2218553  86.8165993  77.5071313  36.3478553  87.6595993  77.6941313
  36.8898553  86.4175993  77.9031313  36.3398553  86.8825993  77.5931313
  34.8368553  79.6965993  72.5091313  34.7088553  79.2485993  73.2471313
  34.2548553  79.3545993  71.9571313  34.7318553  79.5795993  72.5371313
  35.0038553  81.5265993  79.1081313  34.2228553  81.4675993  78.7251313
  35.0758553  80.7745993  79.5451313  34.8988553  81.4075993  79.1161313
  45.3288553  78.9765993  80.9721313  44.6668553  79.3045993  81.4351313
  45.5158553  79.6105993  80.4031313  45.2588553  79.1185993  80.9561313
  43.5218553  76.9455993  74.4831313  44.0118553  77.6625993  74.4061313
  42.7318553  77.2065993  74.2201313  43.4778553  77.0895993  74.4331313
  40.1038553  78.4155993  80.2081313  40.5838553  79.1145993  80.4161313
  40.4768553  77.7685993  80.6591313  40.2298553  78.4235993  80.3051313
  42.2928553  81.5845993  72.4821313  42.2848553  82.3065993  71.9921313
  41.6538553  81.7195993  73.0591313  42.1978553  81.7115993  72.4951313
  47.2648553  85.4545993  76.4631313  47.6208553  85.1045993  77.1781313
  47.2568553  84.7935993  75.8931313  47.3168553  85.3045993  76.4841313
  43.3098553  88.5205993  80.3071313  42.7068553  88.2245993  79.7501313
  43.8548553  88.9725993  79.7981313  43.3008553  88.5435993  80.1491313
  43.3228553  85.3715993  79.7071313  42.5258553  85.5955993  79.9811313
  43.5808553  84.7775993  80.2921313  43.2428553  85.3165993  79.8341313
  36.8858553  73.9265993  72.1431313  36.9828553  73.8195993  73.0041313
  36.1778553  74.4325993  72.0781313  36.7958553  73.9855993  72.2611313
  34.0078553  82.2335993  73.3861313  34.3318553  81.4545993  73.1641313
  34.6538553  82.6015993  73.8411313  34.1508553  82.1725993  73.4201313
  31.0048553  73.8945993  74.3541313  31.1338553  73.1865993  73.8621313
  30.6378553  73.5765993  75.0791313  30.9698553  73.7425993  74.3891313
  40.6978553  81.5755993  74.8111313  40.7568553  82.2255993  75.3901313
  40.5088553  80.8795993  75.3021313  40.6788553  81.5685993  74.9691313
  45.9238553  85.9045993  80.6801313  45.4448553  86.2025993  80.0141313
  45.5678553  85.1285993  80.8581313  45.8008553  85.8335993  80.6081313
  35.1938553  76.0925993  71.3231313  34.6828553  76.1455993  70.6171313
  35.9778553  76.3325993  71.0271313  35.2338553  76.1355993  71.1751313
  39.9208553  83.6225993  79.2421313  39.0738553  83.4285993  79.3231313
  40.2448553  83.4575993  80.0351313  39.8428553  83.5695993  79.3711313
  33.7688553  83.3155993  81.5581313  34.4908553  83.8035993  81.5211313
  33.4988553  83.2855993  80.7291313  33.8358553  83.3835993  81.4301313
  36.9988553  78.4865993  78.2931313  37.8448553  78.2965993  78.3911313
  36.6288553  77.7095993  78.1551313  37.0688553  78.3435993  78.2871313
  31.8198553  79.8245993  74.9481313  32.3088553  79.5325993  75.6091313
  31.9488553  79.2315993  74.3211313  31.9108553  79.6935993  74.9531313
  36.3448553  81.2585993  70.4341313  35.7348553  80.8535993  70.9081313
  35.9588553  81.3765993  69.6611313  36.1978553  81.2155993  70.3901313
  48.1108553  82.9175993  79.2361313  47.8248553  83.3185993  79.9561313
  48.9708553  82.8555993  79.3631313  48.1958553  82.9675993  79.3611313
  37.7998553  79.7195993  73.1441313  38.0718553  80.5455993  73.2111313
  36.9368553  79.7945993  73.0481313  37.7128553  79.8525993  73.1391313
  31.2798553  75.6895993  79.6801313  31.3238553  76.0335993  78.8791313
  32.0348553  75.9265993  80.0471313  31.3978553  75.7755993  79.6161313
  49.2418553  88.5505993  79.7651313  49.5318553  88.8075993  78.9841313
  49.9368553  88.6465993  80.2841313  49.3878553  88.6025993  79.7261313
  45.8468553  87.1535993  71.7471313  46.1808553  86.3475993  71.7821313
  45.0918553  87.0815993  72.1771313  45.7848553  87.0235993  71.8161313
  46.3288553  78.9875993  77.4061313  45.5838553  78.6645993  77.7241313
  46.3308553  79.8135993  77.6861313  46.2188553  79.0615993  77.4941313
  43.2208553  85.0285993  71.1501313  43.9048553  84.5145993  70.9811313
  42.8038553  85.0745993  70.3851313  43.2598553  84.9595993  71.0121313
  37.8658553  88.2225993  80.5621313  37.2418553  88.8045993  80.3801313
  38.1138553  87.9365993  79.7761313  37.8098553  88.2665993  80.4191313
  47.9468553  79.5525993  71.3941313  48.3248553  80.2295993  70.9941313
  47.1048553  79.7765993  71.4251313  47.8778553  79.6855993  71.3391313
  39.4598553  82.9985993  70.4771313  38.6548553  82.8215993  70.1921313
  39.4268553  83.8495993  70.6691313  39.3358553  83.0975993  70.4641313
  35.3898553  79.0655993  80.6271313  35.8298553  78.9625993  79.8811313
  35.9348553  78.7525993  81.2321313  35.5348553  79.0045993  80.6061313
  45.6418553  79.1515993  74.7691313  45.8488553  78.9505993  75.5931313
  46.3978553  79.4195993  74.4271313  45.7838553  79.1615993  74.8401313
  38.9368553  74.0505993  80.6741313  38.1108553  73.9015993  80.9111313
  38.8968553  74.0855993  79.8031313  38.8088553  74.0335993  80.5801313
  46.6638553  75.2345993  76.2431313  45.9498553  74.7635993  76.4141313
  46.5018553  75.5755993  75.4571313  46.5348553  75.2155993  76.1521313
  47.1068553  83.1785993  74.6231313  47.5828553  82.4495993  74.5751313
  46.2858553  82.8925993  74.5471313  47.0558553  83.0285993  74.6041313
  34.5658553  77.1925993  73.9341313  34.6918553  76.8635993  73.1361313
  33.7538553  76.9435993  74.1331313  34.4648553  77.1075993  73.8461313
  43.3228553  84.3455993  76.9781313  43.3988553  84.6865993  77.7771313
  43.4918553  83.4985993  77.0991313  43.3588553  84.2705993  77.1141313
  40.8448553  83.6195993  76.5431313  40.5468553  83.3045993  77.3001313
  41.5398553  84.0925993  76.7781313  40.9038553  83.6425993  76.6901313
  47.8768553  80.2915993  74.0651313  47.9798553  80.2335993  73.2011313
  48.6178553  79.9595993  74.3831313  48.0018553  80.2345993  73.9841313
  41.7968553  87.2565993  75.1721313  41.5918553  88.0895993  75.0131313
  41.0218553  86.8745993  75.2941313  41.6518553  87.3235993  75.1671313
  33.1708553  78.8135993  70.4671313  32.4988553  78.8275993  71.0231313
  33.2658553  77.9655993  70.2831313  33.0858553  78.6905993  70.5221313
  41.8518553  75.4275993  78.0571313  41.1518553  75.9455993  78.0011313
  41.8898553  75.0475993  77.2731313  41.7538553  75.4485993  77.9331313
  37.1588553  87.5185993  71.5811313  37.5998553  87.5985993  72.3291313
  36.3538553  87.3025993  71.8391313  37.1048553  87.4985993  71.7301313
  45.4498553  75.9435993  80.8571313  46.3048553  76.0425993  81.0021313
  45.0808553  76.4965993  81.4221313  45.5218553  76.0405993  80.9621313
  45.7538553  81.2235993  79.3481313  46.4198553  81.7645993  79.5081313
  45.4088553  81.5345993  78.6091313  45.8008553  81.3495993  79.2631313
  34.4878553  86.5885993  72.1821313  34.2438553  86.2815993  72.9621313
  34.4548553  85.8855993  71.6661313  34.4468553  86.4395993  72.2211313
  37.3068553  84.8335993  70.9251313  36.4888553  84.5655993  71.0651313
  37.2788553  85.6855993  71.1101313  37.1818553  84.9205993  70.9731313
  41.0098553  75.8945993  81.0581313  40.2728553  75.4405993  81.1711313
  41.5808553  75.4925993  81.5811313  40.9848553  75.7675993  81.1521313
  39.3088553  73.4755993  70.8891313  39.3868553  73.7225993  70.0561313
  38.5658553  73.8525993  71.1471313  39.2108553  73.5675993  70.8041313
  46.6588553  88.6415993  81.1011313  47.1858553  88.5585993  80.4101313
  46.2678553  87.8635993  81.1551313  46.6788553  88.5145993  81.0071313
  43.1728553  74.0855993  80.3091313  43.8428553  74.6295993  80.4361313
  42.6698553  74.5095993  79.7361313  43.1978553  74.2285993  80.2431313
  42.5318553  79.8935993  77.8021313  43.0828553  79.2865993  78.1021313
  42.1068553  80.1565993  78.5171313  42.5508553  79.8425993  77.9511313
  32.7798553  78.5435993  77.2881313  32.4118553  78.8455993  78.0191313
  33.3138553  77.9145993  77.5721313  32.8038553  78.4955993  77.4381313
  44.5018553  81.7245993  74.3641313  44.5698553  80.8745993  74.5451313
  43.6788553  81.8105993  74.0861313  44.3898553  81.6115993  74.3501313
  38.4208553  82.6155993  73.3021313  38.5208553  82.7545993  72.4471313
  39.2388553  82.5555993  73.5981313  38.5558553  82.6265993  73.2191313
  43.6558553  86.9445993  73.1041313  43.4048553  86.8165993  73.9301313
  43.3388553  86.2495993  72.6831313  43.5718553  86.8235993  73.1641313
  48.2998553  78.6025993  81.2241313  47.4668553  78.8525993  81.1521313
  48.2438553  77.7625993  81.4531313  48.1688553  78.5155993  81.2471313
  40.5418553  85.1525993  72.5341313  41.2588553  84.8055993  72.1781313
  40.5078553  85.9525993  72.1861313  40.6428553  85.2195993  72.4301313
  41.9508553  73.7935993  56.7728903  41.7058553  74.2815993  56.0928903
  42.8138553  73.7205993  56.6728903  42.0418553  73.8545993  56.6578903
  41.7598553  80.7095993  61.4438903  41.2358553  81.3055993  61.8068903
  42.1568553  80.3415993  62.1278903  41.7408553  80.7435993  61.5988903
  31.6288553  84.8495993  56.8998903  31.1878553  84.9675993  57.6428903
  31.3458553  84.0745993  56.6148903  31.5218553  84.7525993  56.9678903
  47.9038553  88.1505993  54.4148903  48.6048553  87.6315993  54.4108903
  47.3168553  87.7055993  53.9458903  47.9208553  88.0075993  54.3448903
  31.3718553  78.6415993  53.4068903  30.5938553  78.8035993  53.0468903
  31.4108553  77.7705993  53.4288903  31.2628553  78.5365993  53.3568903
  34.5108553  83.9045993  52.0788903  34.1188553  83.5335993  51.3928903
  34.4308553  83.3065993  52.7078903  34.4408553  83.7615993  52.0698903
  44.4308553  81.7765993  58.1198903  44.5108553  81.7805993  57.2508903
  43.8468553  81.1445993  58.2688903  44.3558553  81.6835993  58.0138903
  34.1378553  85.5455993  55.9788903  34.7458553  85.3755993  56.5818903
  33.3868553  85.4055993  56.3998903  34.1168553  85.4995993  56.1298903
  38.4198553  74.8805993  55.9278903  38.3498553  75.5575993  55.3818903
  39.1608553  74.4925993  55.6788903  38.5188553  74.9235993  55.8098903
  33.0288553  88.6365993  52.0558903  33.4958553  88.7205993  51.3238903
  33.4838553  88.0585993  52.5248903  33.1648553  88.5635993  52.0168903
  31.5688553  87.5845993  63.1548903  31.6978553  87.3045993  63.9708903
  30.9588553  87.0435993  62.8458903  31.4978553  87.4635993  63.2298903
  38.1428553  85.1095993  68.2218903  37.9068553  85.1065993  69.0618903
  37.3948553  84.9615993  67.7978903  37.9968553  85.0865993  68.2828903
  33.0148553  82.1055993  57.3568903  32.5528553  81.7135993  56.7298903
  33.7148553  81.5925993  57.4488903  33.0498553  81.9725993  57.2778903
  37.5228553  77.7155993  62.7038903  38.2008553  77.7335993  62.1548903
  37.4778553  76.8795993  62.9488903  37.6158553  77.5945993  62.6588903
  38.1248553  88.3015993  65.4848903  38.2628553  89.0615993  65.0778903
  38.9158553  87.9365993  65.5118903  38.2618553  88.3605993  65.4288903
  35.0158553  80.2055993  57.3798903  35.8328553  80.0185993  57.6228903
  34.5388553  79.5915993  57.7758903  35.0658553  80.0875993  57.4748903
  39.2198553  86.1865993  59.9898903  39.5678553  85.3875993  60.0198903
  39.8848553  86.6905993  59.7348903  39.3698553  86.1425993  59.9568903
  39.2768553  85.6355993  56.2008903  39.6078553  84.9915993  56.6868903
  39.5168553  85.4245993  55.3898903  39.3608553  85.5095993  56.1528903
  41.2448553  79.7665993  67.5398903  40.3968553  79.6675993  67.3618903
  41.2738553  80.5115993  67.9938903  41.1238553  79.8625993  67.5808903
  35.6128553  75.2995993  56.6458903  35.3168553  75.8005993  55.9958903
  36.4798553  75.3775993  56.5888903  35.6968553  75.3855993  56.5418903
  45.8028553  72.7265993  66.6538903  45.6448553  73.4955993  66.2718903
  45.0308553  72.5065993  66.9978903  45.6648553  72.8075993  66.6488903
  38.5918553  74.4415993  58.8688903  38.6648553  75.3015993  58.9978903
  38.5538553  74.3665993  58.0008903  38.5968553  74.5575993  58.7598903
  43.2648553  77.3675993  51.1678903  42.8148553  78.0485993  51.4748903
  43.3788553  76.8635993  51.8708903  43.2158553  77.3935993  51.3168903
  31.4708553  79.8665993  60.3698903  31.2148553  80.6975993  60.2948903
  30.8068553  79.4835993  60.7868903  31.3348553  79.9325993  60.4208903
  37.2208553  87.4205993  55.7498903  36.6418553  87.1455993  56.3418903
  37.8448553  86.8115993  55.7748903  37.2278553  87.2905993  55.8408903
  34.4998553  74.6835993  60.8608903  33.9788553  74.0555993  60.5528903
  35.0908553  74.2465993  61.3318903  34.5108553  74.5255993  60.8848903
  37.8058553  76.8165993  70.1588903  37.9228553  76.3625993  69.4228903
  38.0938553  77.6145993  69.9558903  37.8658553  76.8675993  70.0198903
  32.9258553  88.2465993  56.2008903  33.5818553  87.6715993  56.2158903
  33.3148553  88.9955993  55.9798903  33.0808553  88.2715993  56.1708903
  48.6588553  77.3405993  57.4628903  48.3128553  78.0185993  57.8888903
  48.0228553  76.7425993  57.4788903  48.5138553  77.3525993  57.5278903
  33.5388553  76.4135993  69.1428903  32.7608553  76.0235993  69.0708903
  34.0298553  76.0015993  68.5518903  33.4958553  76.2945993  69.0448903
  33.7438553  86.7335993  59.7008903  34.1668553  86.3775993  59.0268903
  34.0678553  86.3115993  60.3928903  33.8538553  86.6185993  59.7038903
  40.1878553  74.0565993  68.3108903  40.3658553  73.2475993  68.0358903
  40.0448553  74.4975993  67.5718903  40.1928553  74.0025993  68.1608903
  40.7818553  78.9825993  57.0838903  41.0688553  78.7505993  56.2938903
  41.5138553  79.0615993  57.5528903  40.9318553  78.9595993  57.0368903
  41.5038553  79.3215993  52.2048903  41.7848553  80.1095993  52.4538903
  40.7278553  79.4865993  51.8418903  41.4308553  79.4625993  52.1878903
  48.3338553  75.6635993  62.8318903  49.0908553  75.7355993  62.4038903
  48.3968553  74.8905993  63.2308903  48.4548553  75.5605993  62.8268903
  30.8868553  76.9615993  66.7288903  30.8828553  77.5485993  67.3748903
  31.4808553  77.2735993  66.1718903  30.9738553  77.0945993  66.7418903
  43.2248553  87.2955993  67.2708903  43.1908553  87.6775993  68.0548903
  44.0788553  87.2535993  67.0998903  43.3458553  87.3455993  67.3618903
  40.3628553  87.4925993  52.0208903  40.1818553  88.0375993  52.6778903
  41.1288553  87.7825993  51.7198903  40.4488553  87.6165993  52.0738903
  43.8698553  75.3885993  53.0748903  44.4098553  74.7065993  53.1508903
  43.9318553  75.7865993  53.8488903  43.9588553  75.3465993  53.2008903
  31.8238553  76.5565993  55.6438903  31.7098553  75.6925993  55.6748903
  31.3488553  76.8505993  56.3138903  31.7368553  76.4725993  55.7468903
  33.9658553  88.9665993  63.8588903  33.2678553  88.4585993  63.9848903
  34.2258553  88.7615993  63.0508903  33.9008553  88.8615993  63.7578903
  41.1278553  77.7645993  54.3888903  40.6198553  77.1025993  54.1348903
  41.1798553  78.2685993  53.6788903  41.0608553  77.7415993  54.2468903
  41.1278553  74.7055993  54.2798903  40.6728553  74.3035993  53.6538903
  41.9008553  74.8605993  53.9048903  41.1748553  74.6695993  54.1318903
  39.7258553  77.0725993  58.8018903  39.7998553  77.6405993  58.1438903
  39.8468553  77.5645993  59.5118903  39.7538553  77.2295993  58.8098903
  44.9508553  86.9075993  57.2138903  45.6518553  86.4255993  57.4028903
  44.2908553  86.3385993  57.2588903  44.9568553  86.7525993  57.2478903
  35.3268553  87.8175993  66.4258903  36.1678553  87.8805993  66.2038903
  35.2898553  88.2145993  67.2018903  35.4458553  87.8855993  66.5078903
  34.3338553  72.8955993  57.1498903  34.8698553  73.5835993  57.1398903
  34.3368553  72.6215993  56.3218903  34.4128553  72.9565993  57.0258903
  37.2898553  83.3285993  61.1748903  37.4618553  83.1185993  62.0038903
  36.6348553  82.7945993  60.9588903  37.2188553  83.2185993  61.2658903
  43.5178553  77.2425993  64.6898903  43.4228553  77.5615993  65.4958903
  42.9248553  76.6035993  64.6518903  43.4158553  77.1945993  64.8038903
  38.0398553  83.2665993  63.7648903  38.0928553  84.1135993  63.9668903
  37.7548553  82.8965993  64.5018903  38.0058553  83.3365993  63.9028903
  44.2168553  83.9615993  62.8948903  43.7028553  83.5495993  63.4658903
  44.0908553  84.8055993  63.0758903  44.1228553  84.0255993  63.0058903
  44.7738553  73.1865993  57.5258903  44.8228553  72.8685993  58.3368903
  45.0968553  72.5425993  57.0328903  44.8288553  73.0445993  57.5728903
  30.8608553  87.6375993  69.9758903  31.6168553  87.9865993  70.2338903
  31.0378553  86.7845993  69.9188903  30.9988553  87.5625993  70.0058903
  47.2378553  77.4225993  65.8338903  48.0098553  77.1975993  66.1708903
  46.7628553  77.6395993  66.5338903  47.2818553  77.4215993  65.9868903
  34.7818553  76.7055993  58.8038903  35.0538553  76.2755993  58.0958903
  34.6058553  76.0695993  59.3748903  34.7958553  76.5485993  58.7838903
  47.4698553  84.4005993  53.0218903  47.5888553  84.1135993  53.8368903
  48.2768553  84.4215993  52.6918903  47.6058553  84.3615993  53.0938903
  34.6058553  84.1325993  58.3528903  35.4568553  84.0525993  58.1798903
  34.2488553  83.4505993  57.9408903  34.6788553  84.0195993  58.2658903
  32.9228553  77.8075993  61.8858903  33.7658553  78.0275993  61.8428903
  32.5338553  78.3805993  61.3548903  32.9898553  77.9245993  61.8008903
  45.3648553  80.9375993  52.6068903  45.1448553  81.6685993  52.1848903
  44.9168553  80.9885993  53.3538903  45.2658553  81.0525993  52.6548903
  36.9738553  84.1395993  56.5878903  37.6868553  84.6345993  56.6778903
  37.1958553  83.5725993  55.9618903  37.1118553  84.1285993  56.5088903
  49.5518553  75.7985993  52.0598903  48.8898553  75.2305993  52.0828903
  49.3588553  76.3105993  51.3798903  49.4258553  75.7905993  51.9628903
  31.1298553  85.7825993  59.9078903  30.4628553  86.2705993  60.1838903
  31.8098553  86.3275993  59.9368903  31.1318553  85.9345993  59.9528903
  38.7768553  79.4925993  70.0038903  38.2928553  80.0695993  70.4458903
  38.7488553  79.7875993  69.1828903  38.7008553  79.6215993  69.9478903
  49.8748553  80.1765993  64.6158903  50.0898553  79.3765993  64.3398903
  49.0248553  80.2365993  64.4268903  49.7808553  80.0675993  64.5468903
  31.1958553  82.4665993  55.0108903  31.0108553  81.6275993  55.1628903
  31.8548553  82.4305993  54.4408903  31.2658553  82.3375993  54.9488903
  47.5538553  75.3565993  54.3388903  48.2998553  74.9495993  54.5378903
  47.8168553  76.0715993  53.9138903  47.7028553  75.4025993  54.3058903
  41.4968553  87.8425993  58.9148903  40.9738553  88.4765993  58.6218903
  41.8068553  87.4785993  58.1858903  41.4648553  87.8825993  58.7638903
  31.3678553  86.6305993  54.5858903  31.9198553  87.1995993  54.9498903
  31.1358553  86.1155993  55.2508903  31.4148553  86.6385993  54.7378903
  35.5718553  85.6305993  61.6748903  36.0388553  85.9195993  62.3528903
  36.1438553  85.1525993  61.2208903  35.7258553  85.6025993  61.7078903
  44.0078553  77.6445993  59.4118903  44.3518553  77.7965993  60.1988903
  43.5548553  76.9065993  59.5248903  43.9918553  77.5575993  59.5448903
  31.1978553  85.0795993  52.2138903  31.9538553  84.6475993  52.2718903
  31.2128553  85.6115993  52.9048903  31.3118553  85.0945993  52.3248903
  32.1378553  83.3005993  60.2188903  32.5688553  83.1715993  59.4718903
  31.9328553  84.1485993  60.1928903  32.1708553  83.4065993  60.1048903
  38.4838553  76.8645993  53.8688903  38.4818553  76.7475993  53.0038903
  38.3028553  77.7125993  53.9608903  38.4568553  76.9725993  53.7548903
  36.2218553  86.8165993  58.5008903  36.3478553  87.6595993  58.6878903
  36.8898553  86.4175993  58.8968903  36.3398553  86.8825993  58.5868903
  34.3518553  80.2995993  68.3628903  33.8158553  79.7935993  68.8308903
  34.3718553  79.9095993  67.5828903  34.2748553  80.1665993  68.3168903
  34.8368553  79.6965993  53.5028903  34.7088553  79.2485993  54.2408903
  34.2548553  79.3545993  52.9508903  34.7318553  79.5795993  53.5308903
  35.0038553  81.5265993  60.1018903  34.2228553  81.4675993  59.7188903
  35.0758553  80.7745993  60.5388903  34.8988553  81.4075993  60.1098903
  35.4338553  81.2635993  63.5698903  35.4588553  80.5885993  63.0188903
  34.7878553  81.7595993  63.2578903  35.3428553  81.2365993  63.4428903
  45.3288553  78.9765993  61.9658903  44.6668553  79.3045993  62.4288903
  45.5158553  79.6105993  61.3968903  45.2588553  79.1185993  61.9498903
  41.9738553  74.8825993  65.3948903  42.1228553  74.0575993  65.1518903
  42.3528553  74.9375993  66.1788903  42.0518553  74.7685993  65.4748903
  43.5218553  76.9455993  55.4768903  44.0118553  77.6625993  55.3998903
  42.7318553  77.2065993  55.2138903  43.4778553  77.0895993  55.4268903
  33.2328553  82.6185993  69.1288903  33.1958553  83.1195993  68.4148903
  33.5638553  81.8665993  68.8338903  33.2758553  82.5805993  68.9798903
  44.8358553  84.8235993  67.3868903  45.3198553  85.5415993  67.4848903
  45.2298553  84.3965993  66.7358903  44.9658553  84.8665993  67.3048903
  39.1318553  87.6685993  68.5638903  39.4858553  87.4905993  69.3408903
  38.6958553  86.9395993  68.3648903  39.1198553  87.5345993  68.6498903
  40.1038553  78.4155993  61.2018903  40.5838553  79.1145993  61.4098903
  40.4768553  77.7685993  61.6528903  40.2298553  78.4235993  61.2988903
  42.2928553  81.5845993  53.4758903  42.2848553  82.3065993  52.9858903
  41.6538553  81.7195993  54.0528903  42.1978553  81.7115993  53.4888903
  47.2648553  85.4545993  57.4568903  47.6208553  85.1045993  58.1718903
  47.2568553  84.7935993  56.8868903  47.3168553  85.3045993  57.4778903
  43.3098553  88.5205993  61.3008903  42.7068553  88.2245993  60.7438903
  43.8548553  88.9725993  60.7918903  43.3008553  88.5435993  61.1428903
  43.3228553  85.3715993  60.7008903  42.5258553  85.5955993  60.9748903
  43.5808553  84.7775993  61.2858903  43.2428553  85.3165993  60.8278903
  46.5828553  83.3695993  65.5468903  46.6378553  83.4945993  64.6848903
  47.3358553  83.6895993  65.8488903  46.7018553  83.4345993  65.4638903
  47.6148553  73.6675993  68.5338903  46.9778553  73.2675993  68.0918903
  47.6408553  73.2365993  69.2918903  47.5248553  73.5455993  68.5798903
  34.0078553  82.2335993  54.3798903  34.3318553  81.4545993  54.1578903
  34.6538553  82.6015993  54.8348903  34.1508553  82.1725993  54.4138903
  42.3138553  83.1755993  65.1468903  42.1588553  83.7855993  65.7508903
  42.8478553  82.6175993  65.5528903  42.3698553  83.1835993  65.2958903
  31.0048553  73.8945993  55.3478903  31.1338553  73.1865993  54.8558903
  30.6378553  73.5765993  56.0728903  30.9698553  73.7425993  55.3828903
  40.6978553  81.5755993  55.8048903  40.7568553  82.2255993  56.3838903
  40.5088553  80.8795993  56.2958903  40.6788553  81.5685993  55.9628903
  45.9238553  85.9045993  61.6738903  45.4448553  86.2025993  61.0078903
  45.5678553  85.1285993  61.8518903  45.8008553  85.8335993  61.6018903
  35.1938553  76.0925993  52.3168903  34.6828553  76.1455993  51.6108903
  35.9778553  76.3325993  52.0208903  35.2338553  76.1355993  52.1688903
  39.9208553  83.6225993  60.2358903  39.0738553  83.4285993  60.3168903
  40.2448553  83.4575993  61.0288903  39.8428553  83.5695993  60.3648903
  33.7688553  83.3155993  62.5518903  34.4908553  83.8035993  62.5148903
  33.4988553  83.2855993  61.7228903  33.8358553  83.3835993  62.4238903
  36.9988553  78.4865993  59.2868903  37.8448553  78.2965993  59.3848903
  36.6288553  77.7095993  59.1488903  37.0688553  78.3435993  59.2808903
  31.8198553  79.8245993  55.9418903  32.3088553  79.5325993  56.6028903
  31.9488553  79.2315993  55.3148903  31.9108553  79.6935993  55.9468903
  46.8548553  82.8465993  62.7928903  46.8478553  82.0705993  63.1908903
  46.0138553  83.0805993  62.7858903  46.7298553  82.7665993  62.8508903
  36.3448553  81.2585993  51.4278903  35.7348553  80.8535993  51.9018903
  35.9588553  81.3765993  50.6548903  36.1978553  81.2155993  51.3838903
  33.1638553  84.3675993  66.8298903  32.7428553  83.8495993  66.2688903
  32.8118553  85.1535993  66.6868903  33.0498553  84.4075993  66.7258903
  48.1108553  82.9175993  60.2298903  47.8248553  83.3185993  60.9498903
  48.9708553  82.8555993  60.3568903  48.1958553  82.9675993  60.3548903
  37.7998553  79.7195993  54.1378903  38.0718553  80.5455993  54.2048903
  36.9368553  79.7945993  54.0418903  37.7128553  79.8525993  54.1328903
  45.7728553  76.8415993  68.7698903  45.2478553  77.3005993  69.2938903
  45.4118553  76.0465993  68.7638903  45.6418553  76.7915993  68.8458903
  31.2798553  75.6895993  60.6738903  31.3238553  76.0335993  59.8728903
  32.0348553  75.9265993  61.0408903  31.3978553  75.7755993  60.6098903
  49.2418553  88.5505993  60.7588903  49.5318553  88.8075993  59.9778903
  49.9368553  88.6465993  61.2778903  49.3878553  88.6025993  60.7198903
  44.2648553  80.4105993  68.8458903  44.3378553  80.5145993  69.7088903
  43.6308553  80.9685993  68.6248903  44.1818553  80.5085993  68.9408903
  46.5328553  80.7295993  67.2108903  46.8518553  81.5155993  67.4138903
  46.1628553  80.4595993  67.9538903  46.5258553  80.8055993  67.3508903
  45.8468553  87.1535993  52.7408903  46.1808553  86.3475993  52.7758903
  45.0918553  87.0815993  53.1708903  45.7848553  87.0235993  52.8098903
  46.3288553  78.9875993  58.3998903  45.5838553  78.6645993  58.7178903
  46.3308553  79.8135993  58.6798903  46.2188553  79.0615993  58.4878903
  49.2308553  81.2715993  69.9458903  49.1788553  80.9305993  69.1448903
  49.9678553  81.7385993  69.9238903  49.3318553  81.2905993  69.8238903
  48.7688553  84.9475993  66.1518903  49.3968553  84.3985993  65.8958903
  48.7078553  85.5125993  65.4898903  48.8528553  84.9505993  66.0158903
  43.2208553  85.0285993  52.1438903  43.9048553  84.5145993  51.9748903
  42.8038553  85.0745993  51.3788903  43.2598553  84.9595993  52.0058903
  37.9028553  86.1785993  63.4478903  37.6048553  86.7705993  64.0148903
  37.9578553  86.6205993  62.6988903  37.8668553  86.3315993  63.4208903
  35.8818553  85.1285993  66.8458903  35.0758553  84.8385993  67.0128903
  35.7928553  85.9965993  66.8518903  35.7498553  85.2135993  66.8708903
  45.2408553  75.3175993  65.8608903  45.9848553  75.7695993  65.7978903
  44.6748553  75.7875993  65.3918903  45.2678553  75.4545993  65.7828903
  40.4188553  82.6015993  62.9388903  40.8948553  82.9755993  63.5668903
  39.5958553  82.7355993  63.1978903  40.3678553  82.6765993  63.0698903
  37.1288553  78.2045993  65.6798903  37.2898553  77.4605993  66.1068903
  37.0838553  77.9555993  64.8448903  37.1458553  78.0575993  65.6198903
  46.5258553  73.2975993  63.5308903  46.2458553  74.1225993  63.4868903
  47.2418553  73.3505993  64.0268903  46.5908553  73.4275993  63.5978903
  38.8808553  74.0125993  65.5598903  39.5858553  74.3325993  65.1578903
  39.1218553  73.2055993  65.7868903  39.0198553  73.9405993  65.5338903
  37.8658553  88.2225993  61.5558903  37.2418553  88.8045993  61.3738903
  38.1138553  87.9365993  60.7698903  37.8098553  88.2665993  61.4128903
  42.1748553  84.8565993  68.5448903  42.9318553  85.1425993  68.2188903
  41.6278553  84.9085993  67.8668903  42.2058553  84.9065993  68.3958903
  46.0838553  87.4065993  67.0488903  46.4298553  87.6765993  67.8028903
  46.3778553  87.9885993  66.4688903  46.1788553  87.5325993  67.0748903
  47.9468553  79.5525993  52.3878903  48.3248553  80.2295993  51.9878903
  47.1048553  79.7765993  52.4188903  47.8778553  79.6855993  52.3328903
  39.4598553  82.9985993  51.4708903  38.6548553  82.8215993  51.1858903
  39.4268553  83.8495993  51.6628903  39.3358553  83.0975993  51.4578903
  35.3898553  79.0655993  61.6208903  35.8298553  78.9625993  60.8748903
  35.9348553  78.7525993  62.2258903  35.5348553  79.0045993  61.5998903
  43.4058553  78.1675993  67.2128903  42.7578553  78.6375993  67.5608903
  43.9708553  78.0785993  67.8718903  43.3938553  78.2235993  67.3618903
  43.0938553  79.7045993  63.5108903  43.3958553  80.1245993  64.2138903
  43.1298553  78.8645993  63.7428903  43.1438553  79.6425993  63.6488903
  45.6418553  79.1515993  55.7628903  45.8488553  78.9505993  56.5868903
  46.3978553  79.4195993  55.4208903  45.7838553  79.1615993  55.8338903
  38.9368553  74.0505993  61.6678903  38.1108553  73.9015993  61.9048903
  38.8968553  74.0855993  60.7968903  38.8088553  74.0335993  61.5738903
  46.6638553  75.2345993  57.2368903  45.9498553  74.7635993  57.4078903
  46.5018553  75.5755993  56.4508903  46.5348553  75.2155993  57.1458903
  47.1068553  83.1785993  55.6168903  47.5828553  82.4495993  55.5688903
  46.2858553  82.8925993  55.5408903  47.0558553  83.0285993  55.5978903
  40.5778553  85.0905993  66.4558903  39.7828553  85.0265993  66.8068903
  40.6488553  85.9375993  66.2608903  40.4708553  85.2055993  66.4788903
  31.5018553  74.4485993  67.7028903  31.3618553  75.2435993  67.3718903
  30.7158553  74.2055993  67.9918903  31.3648553  74.5305993  67.6968903
  34.5658553  77.1925993  54.9278903  34.6918553  76.8635993  54.1298903
  33.7538553  76.9435993  55.1268903  34.4648553  77.1075993  54.8398903
  43.3228553  84.3455993  57.9718903  43.3988553  84.6865993  58.7708903
  43.4918553  83.4985993  58.0928903  43.3588553  84.2705993  58.1078903
  40.8448553  83.6195993  57.5368903  40.5468553  83.3045993  58.2938903
  41.5398553  84.0925993  57.7718903  40.9038553  83.6425993  57.6838903
  41.0668553  87.7375993  65.5638903  41.7538553  87.6235993  66.0888903
  41.2008553  88.5285993  65.2198903  41.1878553  87.8375993  65.5908903
  49.2428553  80.3465993  67.3748903  48.3878553  80.2245993  67.5008903
  49.3958553  79.9515993  66.6118903  49.1388553  80.2695993  67.2808903
  43.7558553  81.0115993  65.9508903  43.5008553  80.2925993  66.3728903
  44.5768553  81.1275993  66.2208903  43.8398553  80.9225993  66.0528903
  41.6898553  82.2015993  69.1378903  42.0128553  82.8875993  68.7058903
  40.9858553  82.5245993  69.5398903  41.6328553  82.3505993  69.1328903
  41.4748553  85.6655993  62.9968903  40.7808553  86.0675993  63.3398903
  42.1518553  86.0985993  63.3358903  41.4718553  85.7885993  63.0978903
  46.8518553  88.2585993  69.5768903  47.6278553  87.8685993  69.6598903
  46.3828553  87.9225993  70.2318903  46.8968553  88.1515993  69.6858903
  34.5428553  79.2035993  65.3438903  34.9178553  79.8225993  64.8568903
  35.2168553  78.7295993  65.6288903  34.6978553  79.2255993  65.3138903
  32.3178553  77.6515993  64.6188903  32.3948553  77.4825993  63.7658903
  33.0638553  78.0575993  64.8158903  32.4388553  77.6865993  64.5218903
  47.8768553  80.2915993  55.0588903  47.9798553  80.2335993  54.1948903
  48.6178553  79.9595993  55.3768903  48.0018553  80.2345993  54.9778903
  34.8718553  75.0615993  67.0298903  34.7908553  74.2175993  67.2358903
  34.5578553  75.1055993  66.2168903  34.8138553  74.9435993  66.9398903
  41.7968553  87.2565993  56.1658903  41.5918553  88.0895993  56.0068903
  41.0218553  86.8745993  56.2878903  41.6518553  87.3235993  56.1608903
  46.9788553  80.4375993  64.4148903  46.9768553  79.5745993  64.5388903
  47.0458553  80.7615993  65.2218903  46.9888553  80.3575993  64.5518903
  31.7148553  82.8775993  64.8428903  32.0348553  83.0965993  64.0618903
  31.6148553  82.0125993  64.7878903  31.7468553  82.7825993  64.7198903
  33.1708553  78.8135993  51.4608903  32.4988553  78.8275993  52.0168903
  33.2658553  77.9655993  51.2768903  33.0858553  78.6905993  51.5158903
  42.8578553  75.2375993  68.1968903  42.9498553  75.9495993  68.6908903
  42.2208553  74.7925993  68.5938903  42.7768553  75.2765993  68.3288903
  41.8518553  75.4275993  59.0508903  41.1518553  75.9455993  58.9948903
  41.8898553  75.0475993  58.2668903  41.7538553  75.4485993  58.9268903
  37.1588553  87.5185993  52.5748903  37.5998553  87.5985993  53.3228903
  36.3538553  87.3025993  52.8328903  37.1048553  87.4985993  52.7238903
  45.4498553  75.9435993  61.8508903  46.3048553  76.0425993  61.9958903
  45.0808553  76.4965993  62.4158903  45.5218553  76.0405993  61.9558903
  36.4778553  82.1695993  66.2278903  36.0818553  82.9435993  66.3028903
  36.0718553  81.7965993  65.5518903  36.3598553  82.2285993  66.1388903
  45.7538553  81.2235993  60.3418903  46.4198553  81.7645993  60.5018903
  45.4088553  81.5345993  59.6028903  45.8008553  81.3495993  60.2568903
  34.4878553  86.5885993  53.1758903  34.2438553  86.2815993  53.9558903
  34.4548553  85.8855993  52.6598903  34.4468553  86.4395993  53.2148903
  37.3068553  84.8335993  51.9188903  36.4888553  84.5655993  52.0588903
  37.2788553  85.6855993  52.1038903  37.1818553  84.9205993  51.9668903
  36.9068553  75.1465993  63.6778903  36.0428553  75.2305993  63.7578903
  37.1268553  74.6325993  64.3468903  36.8118553  75.0835993  63.7888903
  48.9248553  73.7815993  65.0068903  48.8728553  73.7375993  65.8768903
  49.6118553  73.2785993  64.8168903  49.0188553  73.7015993  65.1068903
  41.0098553  75.8945993  62.0518903  40.2728553  75.4405993  62.1648903
  41.5808553  75.4925993  62.5748903  40.9848553  75.7675993  62.1458903
  43.7418553  86.7425993  63.8398903  43.9478553  87.0435993  64.6318903
  43.6808553  87.4645993  63.3548903  43.7628553  86.8935993  63.8848903
  38.5128553  80.2235993  67.2558903  38.1908553  79.6475993  66.6858903
  38.1538553  80.9785993  67.0098903  38.4128553  80.2495993  67.1358903
  48.5538553  85.3815993  63.2978903  48.5218553  84.5195993  63.1628903
  47.8608553  85.6835993  62.8638903  48.4468553  85.2985993  63.2138903
  46.6588553  88.6415993  62.0948903  47.1858553  88.5585993  61.4038903
  46.2678553  87.8635993  62.1488903  46.6788553  88.5145993  62.0008903
  34.1268553  75.2295993  64.3258903  33.7838553  74.4625993  64.0918903
  33.4318553  75.7535993  64.3898903  33.9738553  75.1935993  64.3008903
  43.1728553  74.0855993  61.3028903  43.8428553  74.6295993  61.4298903
  42.6698553  74.5095993  60.7298903  43.1978553  74.2285993  61.2368903
  42.5318553  79.8935993  58.7958903  43.0828553  79.2865993  59.0958903
  42.1068553  80.1565993  59.5108903  42.5508553  79.8425993  58.9448903
  32.7798553  78.5435993  58.2818903  32.4118553  78.8455993  59.0128903
  33.3138553  77.9145993  58.5658903  32.8038553  78.4955993  58.4318903
  32.4678553  86.9515993  65.7928903  31.8938553  87.3675993  66.3018903
  33.2008553  87.4165993  65.8878903  32.4918553  87.0815993  65.8818903
  44.5018553  81.7245993  55.3578903  44.5698553  80.8745993  55.5388903
  43.6788553  81.8105993  55.0798903  44.3898553  81.6115993  55.3438903
  38.4208553  82.6155993  54.2958903  38.5208553  82.7545993  53.4408903
  39.2388553  82.5555993  54.5918903  38.5558553  82.6265993  54.2128903
  47.7758553  83.0975993  68.5088903  48.4098553  82.9275993  69.0828903
  48.1928553  83.5005993  67.8568903  47.9308553  83.1325993  68.4978903
  43.6558553  86.9445993  54.0978903  43.4048553  86.8165993  54.9238903
  43.3388553  86.2495993  53.6768903  43.5718553  86.8235993  54.1578903
  48.4008553  77.6615993  69.2468903  48.2048553  78.3055993  69.8018903
  47.6788553  77.1715993  69.2388903  48.2658553  77.6845993  69.3278903
  48.2998553  78.6025993  62.2178903  47.4668553  78.8525993  62.1458903
  48.2438553  77.7625993  62.4468903  48.1688553  78.5155993  62.2408903
  37.5598553  75.5905993  67.4118903  37.7938553  75.0145993  66.7988903
  36.7178553  75.4095993  67.5528903  37.4698553  75.4785993  67.3418903
  45.1868553  83.2085993  69.8638903  46.0578553  83.1725993  69.8278903
  44.9678553  83.6285993  69.1318903  45.2838553  83.2645993  69.7508903
  40.5418553  85.1525993  53.5278903  41.2588553  84.8055993  53.1718903
  40.5078553  85.9525993  53.1798903  40.6428553  85.2195993  53.4238903
  41.9508553  73.7935993  37.7666493  41.7058553  74.2815993  37.0866493
  42.8138553  73.7205993  37.6666493  42.0418553  73.8545993  37.6516493
  41.7598553  80.7095993  42.4376493  41.2358553  81.3055993  42.8006493
  42.1568553  80.3415993  43.1216493  41.7408553  80.7435993  42.5926493
  31.6288553  84.8495993  37.8936493  31.1878553  84.9675993  38.6366493
  31.3458553  84.0745993  37.6086493  31.5218553  84.7525993  37.9616493
  47.9038553  88.1505993  35.4086493  48.6048553  87.6315993  35.4046493
  47.3168553  87.7055993  34.9396493  47.9208553  88.0075993  35.3386493
  31.3718553  78.6415993  34.4006493  30.5938553  78.8035993  34.0406493
  31.4108553  77.7705993  34.4226493  31.2628553  78.5365993  34.3506493
  34.5108553  83.9045993  33.0726493  34.1188553  83.5335993  32.3866493
  34.4308553  83.3065993  33.7016493  34.4408553  83.7615993  33.0636493
  44.4308553  81.7765993  39.1136493  44.5108553  81.7805993  38.2446493
  43.8468553  81.1445993  39.2626493  44.3558553  81.6835993  39.0076493
  34.1378553  85.5455993  36.9726493  34.7458553  85.3755993  37.5756493
  33.3868553  85.4055993  37.3936493  34.1168553  85.4995993  37.1236493
  38.4198553  74.8805993  36.9216493  38.3498553  75.5575993  36.3756493
  39.1608553  74.4925993  36.6726493  38.5188553  74.9235993  36.8036493
  33.0288553  88.6365993  33.0496493  33.4958553  88.7205993  32.3176493
  33.4838553  88.0585993  33.5186493  33.1648553  88.5635993  33.0106493
  31.5688553  87.5845993  44.1486493  31.6978553  87.3045993  44.9646493
  30.9588553  87.0435993  43.8396493  31.4978553  87.4635993  44.2236493
  38.1428553  85.1095993  49.2156493  37.9068553  85.1065993  50.0556493
  37.3948553  84.9615993  48.7916493  37.9968553  85.0865993  49.2766493
  33.0148553  82.1055993  38.3506493  32.5528553  81.7135993  37.7236493
  33.7148553  81.5925993  38.4426493  33.0498553  81.9725993  38.2716493
  37.5228553  77.7155993  43.6976493  38.2008553  77.7335993  43.1486493
  37.4778553  76.8795993  43.9426493  37.6158553  77.5945993  43.6526493
  38.1248553  88.3015993  46.4786493  38.2628553  89.0615993  46.0716493
  38.9158553  87.9365993  46.5056493  38.2618553  88.3605993  46.4226493
  35.0158553  80.2055993  38.3736493  35.8328553  80.0185993  38.6166493
  34.5388553  79.5915993  38.7696493  35.0658553  80.0875993  38.4686493
  39.2198553  86.1865993  40.9836493  39.5678553  85.3875993  41.0136493
  39.8848553  86.6905993  40.7286493  39.3698553  86.1425993  40.9506493
  39.2768553  85.6355993  37.1946493  39.6078553  84.9915993  37.6806493
  39.5168553  85.4245993  36.3836493  39.3608553  85.5095993  37.1466493
  41.2448553  79.7665993  48.5336493  40.3968553  79.6675993  48.3556493
  41.2738553  80.5115993  48.9876493  41.1238553  79.8625993  48.5746493
  35.6128553  75.2995993  37.6396493  35.3168553  75.8005993  36.9896493
  36.4798553  75.3775993  37.5826493  35.6968553  75.3855993  37.5356493
  38.5918553  74.4415993  39.8626493  38.6648553  75.3015993  39.9916493
  38.5538553  74.3665993  38.9946493  38.5968553  74.5575993  39.7536493
  43.2648553  77.3675993  32.1616493  42.8148553  78.0485993  32.4686493
  43.3788553  76.8635993  32.8646493  43.2158553  77.3935993  32.3106493
  31.4708553  79.8665993  41.3636493  31.2148553  80.6975993  41.2886493
  30.8068553  79.4835993  41.7806493  31.3348553  79.9325993  41.4146493
  37.2208553  87.4205993  36.7436493  36.6418553  87.1455993  37.3356493
  37.8448553  86.8115993  36.7686493  37.2278553  87.2905993  36.8346493
  34.4998553  74.6835993  41.8546493  33.9788553  74.0555993  41.5466493
  35.0908553  74.2465993  42.3256493  34.5108553  74.5255993  41.8786493
  37.8058553  76.8165993  51.1526493  37.9228553  76.3625993  50.4166493
  38.0938553  77.6145993  50.9496493  37.8658553  76.8675993  51.0136493
  32.9258553  88.2465993  37.1946493  33.5818553  87.6715993  37.2096493
  33.3148553  88.9955993  36.9736493  33.0808553  88.2715993  37.1646493
  33.5388553  76.4135993  50.1366493  32.7608553  76.0235993  50.0646493
  34.0298553  76.0015993  49.5456493  33.4958553  76.2945993  50.0386493
  33.7438553  86.7335993  40.6946493  34.1668553  86.3775993  40.0206493
  34.0678553  86.3115993  41.3866493  33.8538553  86.6185993  40.6976493
  40.1878553  74.0565993  49.3046493  40.3658553  73.2475993  49.0296493
  40.0448553  74.4975993  48.5656493  40.1928553  74.0025993  49.1546493
  40.7818553  78.9825993  38.0776493  41.0688553  78.7505993  37.2876493
  41.5138553  79.0615993  38.5466493  40.9318553  78.9595993  38.0306493
  41.5038553  79.3215993  33.1986493  41.7848553  80.1095993  33.4476493
  40.7278553  79.4865993  32.8356493  41.4308553  79.4625993  33.1816493
  30.8868553  76.9615993  47.7226493  30.8828553  77.5485993  48.3686493
  31.4808553  77.2735993  47.1656493  30.9738553  77.0945993  47.7356493
  43.2248553  87.2955993  48.2646493  43.1908553  87.6775993  49.0486493
  44.0788553  87.2535993  48.0936493  43.3458553  87.3455993  48.3556493
  40.3628553  87.4925993  33.0146493  40.1818553  88.0375993  33.6716493
  41.1288553  87.7825993  32.7136493  40.4488553  87.6165993  33.0676493
  43.8698553  75.3885993  34.0686493  44.4098553  74.7065993  34.1446493
  43.9318553  75.7865993  34.8426493  43.9588553  75.3465993  34.1946493
  31.8238553  76.5565993  36.6376493  31.7098553  75.6925993  36.6686493
  31.3488553  76.8505993  37.3076493  31.7368553  76.4725993  36.7406493
  33.9658553  88.9665993  44.8526493  33.2678553  88.4585993  44.9786493
  34.2258553  88.7615993  44.0446493  33.9008553  88.8615993  44.7516493
  41.1278553  77.7645993  35.3826493  40.6198553  77.1025993  35.1286493
  41.1798553  78.2685993  34.6726493  41.0608553  77.7415993  35.2406493
  41.1278553  74.7055993  35.2736493  40.6728553  74.3035993  34.6476493
  41.9008553  74.8605993  34.8986493  41.1748553  74.6695993  35.1256493
  39.7258553  77.0725993  39.7956493  39.7998553  77.6405993  39.1376493
  39.8468553  77.5645993  40.5056493  39.7538553  77.2295993  39.8036493
  44.9508553  86.9075993  38.2076493  45.6518553  86.4255993  38.3966493
  44.2908553  86.3385993  38.2526493  44.9568553  86.7525993  38.2416493
  35.3268553  87.8175993  47.4196493  36.1678553  87.8805993  47.1976493
  35.2898553  88.2145993  48.1956493  35.4458553  87.8855993  47.5016493
  34.3338553  72.8955993  38.1436493  34.8698553  73.5835993  38.1336493
  34.3368553  72.6215993  37.3156493  34.4128553  72.9565993  38.0196493
  37.2898553  83.3285993  42.1686493  37.4618553  83.1185993  42.9976493
  36.6348553  82.7945993  41.9526493  37.2188553  83.2185993  42.2596493
  43.5178553  77.2425993  45.6836493  43.4228553  77.5615993  46.4896493
  42.9248553  76.6035993  45.6456493  43.4158553  77.1945993  45.7976493
  38.0398553  83.2665993  44.7586493  38.0928553  84.1135993  44.9606493
  37.7548553  82.8965993  45.4956493  38.0058553  83.3365993  44.8966493
  44.2168553  83.9615993  43.8886493  43.7028553  83.5495993  44.4596493
  44.0908553  84.8055993  44.0696493  44.1228553  84.0255993  43.9996493
  30.8608553  87.6375993  50.9696493  31.6168553  87.9865993  51.2276493
  31.0378553  86.7845993  50.9126493  30.9988553  87.5625993  50.9996493
  47.2378553  77.4225993  46.8276493  48.0098553  77.1975993  47.1646493
  46.7628553  77.6395993  47.5276493  47.2818553  77.4215993  46.9806493
  34.7818553  76.7055993  39.7976493  35.0538553  76.2755993  39.0896493
  34.6058553  76.0695993  40.3686493  34.7958553  76.5485993  39.7776493
  47.4698553  84.4005993  34.0156493  47.5888553  84.1135993  34.8306493
  48.2768553  84.4215993  33.6856493  47.6058553  84.3615993  34.0876493
  34.6058553  84.1325993  39.3466493  35.4568553  84.0525993  39.1736493
  34.2488553  83.4505993  38.9346493  34.6788553  84.0195993  39.2596493
  32.9228553  77.8075993  42.8796493  33.7658553  78.0275993  42.8366493
  32.5338553  78.3805993  42.3486493  32.9898553  77.9245993  42.7946493
  45.3648553  80.9375993  33.6006493  45.1448553  81.6685993  33.1786493
  44.9168553  80.9885993  34.3476493  45.2658553  81.0525993  33.6486493
  36.9738553  84.1395993  37.5816493  37.6868553  84.6345993  37.6716493
  37.1958553  83.5725993  36.9556493  37.1118553  84.1285993  37.5026493
  31.1298553  85.7825993  40.9016493  30.4628553  86.2705993  41.1776493
  31.8098553  86.3275993  40.9306493  31.1318553  85.9345993  40.9466493
  38.7768553  79.4925993  50.9976493  38.2928553  80.0695993  51.4396493
  38.7488553  79.7875993  50.1766493  38.7008553  79.6215993  50.9416493
  49.8748553  80.1765993  45.6096493  50.0898553  79.3765993  45.3336493
  49.0248553  80.2365993  45.4206493  49.7808553  80.0675993  45.5406493
  31.1958553  82.4665993  36.0046493  31.0108553  81.6275993  36.1566493
  31.8548553  82.4305993  35.4346493  31.2658553  82.3375993  35.9426493
  41.4968553  87.8425993  39.9086493  40.9738553  88.4765993  39.6156493
  41.8068553  87.4785993  39.1796493  41.4648553  87.8825993  39.7576493
  31.3678553  86.6305993  35.5796493  31.9198553  87.1995993  35.9436493
  31.1358553  86.1155993  36.2446493  31.4148553  86.6385993  35.7316493
  35.5718553  85.6305993  42.6686493  36.0388553  85.9195993  43.3466493
  36.1438553  85.1525993  42.2146493  35.7258553  85.6025993  42.7016493
  44.0078553  77.6445993  40.4056493  44.3518553  77.7965993  41.1926493
  43.5548553  76.9065993  40.5186493  43.9918553  77.5575993  40.5386493
  31.1978553  85.0795993  33.2076493  31.9538553  84.6475993  33.2656493
  31.2128553  85.6115993  33.8986493  31.3118553  85.0945993  33.3186493
  32.1378553  83.3005993  41.2126493  32.5688553  83.1715993  40.4656493
  31.9328553  84.1485993  41.1866493  32.1708553  83.4065993  41.0986493
  38.4838553  76.8645993  34.8626493  38.4818553  76.7475993  33.9976493
  38.3028553  77.7125993  34.9546493  38.4568553  76.9725993  34.7486493
  36.2218553  86.8165993  39.4946493  36.3478553  87.6595993  39.6816493
  36.8898553  86.4175993  39.8906493  36.3398553  86.8825993  39.5806493
  34.3518553  80.2995993  49.3566493  33.8158553  79.7935993  49.8246493
  34.3718553  79.9095993  48.5766493  34.2748553  80.1665993  49.3106493
  34.8368553  79.6965993  34.4966493  34.7088553  79.2485993  35.2346493
  34.2548553  79.3545993  33.9446493  34.7318553  79.5795993  34.5246493
  35.0038553  81.5265993  41.0956493  34.2228553  81.4675993  40.7126493
  35.0758553  80.7745993  41.5326493  34.8988553  81.4075993  41.1036493
  35.4338553  81.2635993  44.5636493  35.4588553  80.5885993  44.0126493
  34.7878553  81.7595993  44.2516493  35.3428553  81.2365993  44.4366493
  45.3288553  78.9765993  42.9596493  44.6668553  79.3045993  43.4226493
  45.5158553  79.6105993  42.3906493  45.2588553  79.1185993  42.9436493
  43.5218553  76.9455993  36.4706493  44.0118553  77.6625993  36.3936493
  42.7318553  77.2065993  36.2076493  43.4778553  77.0895993  36.4206493
  33.2328553  82.6185993  50.1226493  33.1958553  83.1195993  49.4086493
  33.5638553  81.8665993  49.8276493  33.2758553  82.5805993  49.9736493
  44.8358553  84.8235993  48.3806493  45.3198553  85.5415993  48.4786493
  45.2298553  84.3965993  47.7296493  44.9658553  84.8665993  48.2986493
  39.1318553  87.6685993  49.5576493  39.4858553  87.4905993  50.3346493
  38.6958553  86.9395993  49.3586493  39.1198553  87.5345993  49.6436493
  40.1038553  78.4155993  42.1956493  40.5838553  79.1145993  42.4036493
  40.4768553  77.7685993  42.6466493  40.2298553  78.4235993  42.2926493
  42.2928553  81.5845993  34.4696493  42.2848553  82.3065993  33.9796493
  41.6538553  81.7195993  35.0466493  42.1978553  81.7115993  34.4826493
  47.2648553  85.4545993  38.4506493  47.6208553  85.1045993  39.1656493
  47.2568553  84.7935993  37.8806493  47.3168553  85.3045993  38.4716493
  43.3098553  88.5205993  42.2946493  42.7068553  88.2245993  41.7376493
  43.8548553  88.9725993  41.7856493  43.3008553  88.5435993  42.1366493
  43.3228553  85.3715993  41.6946493  42.5258553  85.5955993  41.9686493
  43.5808553  84.7775993  42.2796493  43.2428553  85.3165993  41.8216493
  36.8858553  73.9265993  34.1306493  36.9828553  73.8195993  34.9916493
  36.1778553  74.4325993  34.0656493  36.7958553  73.9855993  34.2486493
  46.5828553  83.3695993  46.5406493  46.6378553  83.4945993  45.6786493
  47.3358553  83.6895993  46.8426493  46.7018553  83.4345993  46.4576493
  34.0078553  82.2335993  35.3736493  34.3318553  81.4545993  35.1516493
  34.6538553  82.6015993  35.8286493  34.1508553  82.1725993  35.4076493
  42.3138553  83.1755993  46.1406493  42.1588553  83.7855993  46.7446493
  42.8478553  82.6175993  46.5466493  42.3698553  83.1835993  46.2896493
  31.0048553  73.8945993  36.3416493  31.1338553  73.1865993  35.8496493
  30.6378553  73.5765993  37.0666493  30.9698553  73.7425993  36.3766493
  40.6978553  81.5755993  36.7986493  40.7568553  82.2255993  37.3776493
  40.5088553  80.8795993  37.2896493  40.6788553  81.5685993  36.9566493
  45.9238553  85.9045993  42.6676493  45.4448553  86.2025993  42.0016493
  45.5678553  85.1285993  42.8456493  45.8008553  85.8335993  42.5956493
  35.1938553  76.0925993  33.3106493  34.6828553  76.1455993  32.6046493
  35.9778553  76.3325993  33.0146493  35.2338553  76.1355993  33.1626493
  39.9208553  83.6225993  41.2296493  39.0738553  83.4285993  41.3106493
  40.2448553  83.4575993  42.0226493  39.8428553  83.5695993  41.3586493
  33.7688553  83.3155993  43.5456493  34.4908553  83.8035993  43.5086493
  33.4988553  83.2855993  42.7166493  33.8358553  83.3835993  43.4176493
  36.9988553  78.4865993  40.2806493  37.8448553  78.2965993  40.3786493
  36.6288553  77.7095993  40.1426493  37.0688553  78.3435993  40.2746493
  31.8198553  79.8245993  36.9356493  32.3088553  79.5325993  37.5966493
  31.9488553  79.2315993  36.3086493  31.9108553  79.6935993  36.9406493
  46.8548553  82.8465993  43.7866493  46.8478553  82.0705993  44.1846493
  46.0138553  83.0805993  43.7796493  46.7298553  82.7665993  43.8446493
  36.3448553  81.2585993  32.4216493  35.7348553  80.8535993  32.8956493
  35.9588553  81.3765993  31.6486493  36.1978553  81.2155993  32.3776493
  33.1638553  84.3675993  47.8236493  32.7428553  83.8495993  47.2626493
  32.8118553  85.1535993  47.6806493  33.0498553  84.4075993  47.7196493
  48.1108553  82.9175993  41.2236493  47.8248553  83.3185993  41.9436493
  48.9708553  82.8555993  41.3506493  48.1958553  82.9675993  41.3486493
  37.7998553  79.7195993  35.1316493  38.0718553  80.5455993  35.1986493
  36.9368553  79.7945993  35.0356493  37.7128553  79.8525993  35.1266493
  45.7728553  76.8415993  49.7636493  45.2478553  77.3005993  50.2876493
  45.4118553  76.0465993  49.7576493  45.6418553  76.7915993  49.8396493
  31.2798553  75.6895993  41.6676493  31.3238553  76.0335993  40.8666493
  32.0348553  75.9265993  42.0346493  31.3978553  75.7755993  41.6036493
  49.2418553  88.5505993  41.7526493  49.5318553  88.8075993  40.9716493
  49.9368553  88.6465993  42.2716493  49.3878553  88.6025993  41.7136493
  44.2648553  80.4105993  49.8396493  44.3378553  80.5145993  50.7026493
  43.6308553  80.9685993  49.6186493  44.1818553  80.5085993  49.9346493
  46.5328553  80.7295993  48.2046493  46.8518553  81.5155993  48.4076493
  46.1628553  80.4595993  48.9476493  46.5258553  80.8055993  48.3446493
  45.8468553  87.1535993  33.7346493  46.1808553  86.3475993  33.7696493
  45.0918553  87.0815993  34.1646493  45.7848553  87.0235993  33.8036493
  46.3288553  78.9875993  39.3936493  45.5838553  78.6645993  39.7116493
  46.3308553  79.8135993  39.6736493  46.2188553  79.0615993  39.4816493
  49.2308553  81.2715993  50.9396493  49.1788553  80.9305993  50.1386493
  49.9678553  81.7385993  50.9176493  49.3318553  81.2905993  50.8176493
  48.7688553  84.9475993  47.1456493  49.3968553  84.3985993  46.8896493
  48.7078553  85.5125993  46.4836493  48.8528553  84.9505993  47.0096493
  43.2208553  85.0285993  33.1376493  43.9048553  84.5145993  32.9686493
  42.8038553  85.0745993  32.3726493  43.2598553  84.9595993  32.9996493
  37.9028553  86.1785993  44.4416493  37.6048553  86.7705993  45.0086493
  37.9578553  86.6205993  43.6926493  37.8668553  86.3315993  44.4146493
  35.8818553  85.1285993  47.8396493  35.0758553  84.8385993  48.0066493
  35.7928553  85.9965993  47.8456493  35.7498553  85.2135993  47.8646493
  40.4188553  82.6015993  43.9326493  40.8948553  82.9755993  44.5606493
  39.5958553  82.7355993  44.1916493  40.3678553  82.6765993  44.0636493
  37.1288553  78.2045993  46.6736493  37.2898553  77.4605993  47.1006493
  37.0838553  77.9555993  45.8386493  37.1458553  78.0575993  46.6136493
  38.8808553  74.0125993  46.5536493  39.5858553  74.3325993  46.1516493
  39.1218553  73.2055993  46.7806493  39.0198553  73.9405993  46.5276493
  37.8658553  88.2225993  42.5496493  37.2418553  88.8045993  42.3676493
  38.1138553  87.9365993  41.7636493  37.8098553  88.2665993  42.4066493
  42.1748553  84.8565993  49.5386493  42.9318553  85.1425993  49.2126493
  41.6278553  84.9085993  48.8606493  42.2058553  84.9065993  49.3896493
  46.0838553  87.4065993  48.0426493  46.4298553  87.6765993  48.7966493
  46.3778553  87.9885993  47.4626493  46.1788553  87.5325993  48.0686493
  47.9468553  79.5525993  33.3816493  48.3248553  80.2295993  32.9816493
  47.1048553  79.7765993  33.4126493  47.8778553  79.6855993  33.3266493
  39.4598553  82.9985993  32.4646493  38.6548553  82.8215993  32.1796493
  39.4268553  83.8495993  32.6566493  39.3358553  83.0975993  32.4516493
  35.3898553  79.0655993  42.6146493  35.8298553  78.9625993  41.8686493
  35.9348553  78.7525993  43.2196493  35.5348553  79.0045993  42.5936493
  43.4058553  78.1675993  48.2066493  42.7578553  78.6375993  48.5546493
  43.9708553  78.0785993  48.8656493  43.3938553  78.2235993  48.3556493
  43.0938553  79.7045993  44.5046493  43.3958553  80.1245993  45.2076493
  43.1298553  78.8645993  44.7366493  43.1438553  79.6425993  44.6426493
  45.6418553  79.1515993  36.7566493  45.8488553  78.9505993  37.5806493
  46.3978553  79.4195993  36.4146493  45.7838553  79.1615993  36.8276493
  38.9368553  74.0505993  42.6616493  38.1108553  73.9015993  42.8986493
  38.8968553  74.0855993  41.7906493  38.8088553  74.0335993  42.5676493
  47.1068553  83.1785993  36.6106493  47.5828553  82.4495993  36.5626493
  46.2858553  82.8925993  36.5346493  47.0558553  83.0285993  36.5916493
  40.5778553  85.0905993  47.4496493  39.7828553  85.0265993  47.8006493
  40.6488553  85.9375993  47.2546493  40.4708553  85.2055993  47.4726493
  31.5018553  74.4485993  48.6966493  31.3618553  75.2435993  48.3656493
  30.7158553  74.2055993  48.9856493  31.3648553  74.5305993  48.6906493
  34.5658553  77.1925993  35.9216493  34.6918553  76.8635993  35.1236493
  33.7538553  76.9435993  36.1206493  34.4648553  77.1075993  35.8336493
  43.3228553  84.3455993  38.9656493  43.3988553  84.6865993  39.7646493
  43.4918553  83.4985993  39.0866493  43.3588553  84.2705993  39.1016493
  40.8448553  83.6195993  38.5306493  40.5468553  83.3045993  39.2876493
  41.5398553  84.0925993  38.7656493  40.9038553  83.6425993  38.6776493
  41.0668553  87.7375993  46.5576493  41.7538553  87.6235993  47.0826493
  41.2008553  88.5285993  46.2136493  41.1878553  87.8375993  46.5846493
  49.2428553  80.3465993  48.3686493  48.3878553  80.2245993  48.4946493
  49.3958553  79.9515993  47.6056493  49.1388553  80.2695993  48.2746493
  43.7558553  81.0115993  46.9446493  43.5008553  80.2925993  47.3666493
  44.5768553  81.1275993  47.2146493  43.8398553  80.9225993  47.0466493
  41.6898553  82.2015993  50.1316493  42.0128553  82.8875993  49.6996493
  40.9858553  82.5245993  50.5336493  41.6328553  82.3505993  50.1266493
  41.4748553  85.6655993  43.9906493  40.7808553  86.0675993  44.3336493
  42.1518553  86.0985993  44.3296493  41.4718553  85.7885993  44.0916493
  46.8518553  88.2585993  50.5706493  47.6278553  87.8685993  50.6536493
  46.3828553  87.9225993  51.2256493  46.8968553  88.1515993  50.6796493
  34.5428553  79.2035993  46.3376493  34.9178553  79.8225993  45.8506493
  35.2168553  78.7295993  46.6226493  34.6978553  79.2255993  46.3076493
  32.3178553  77.6515993  45.6126493  32.3948553  77.4825993  44.7596493
  33.0638553  78.0575993  45.8096493  32.4388553  77.6865993  45.5156493
  47.8768553  80.2915993  36.0526493  47.9798553  80.2335993  35.1886493
  48.6178553  79.9595993  36.3706493  48.0018553  80.2345993  35.9716493
  34.8718553  75.0615993  48.0236493  34.7908553  74.2175993  48.2296493
  34.5578553  75.1055993  47.2106493  34.8138553  74.9435993  47.9336493
  41.7968553  87.2565993  37.1596493  41.5918553  88.0895993  37.0006493
  41.0218553  86.8745993  37.2816493  41.6518553  87.3235993  37.1546493
  46.9788553  80.4375993  45.4086493  46.9768553  79.5745993  45.5326493
  47.0458553  80.7615993  46.2156493  46.9888553  80.3575993  45.5456493
  31.7148553  82.8775993  45.8366493  32.0348553  83.0965993  45.0556493
  31.6148553  82.0125993  45.7816493  31.7468553  82.7825993  45.7136493
  33.1708553  78.8135993  32.4546493  32.4988553  78.8275993  33.0106493
  33.2658553  77.9655993  32.2706493  33.0858553  78.6905993  32.5096493
  41.8518553  75.4275993  40.0446493  41.1518553  75.9455993  39.9886493
  41.8898553  75.0475993  39.2606493  41.7538553  75.4485993  39.9206493
  37.1588553  87.5185993  33.5686493  37.5998553  87.5985993  34.3166493
  36.3538553  87.3025993  33.8266493  37.1048553  87.4985993  33.7176493
  36.4778553  82.1695993  47.2216493  36.0818553  82.9435993  47.2966493
  36.0718553  81.7965993  46.5456493  36.3598553  82.2285993  47.1326493
  45.7538553  81.2235993  41.3356493  46.4198553  81.7645993  41.4956493
  45.4088553  81.5345993  40.5966493  45.8008553  81.3495993  41.2506493
  34.4878553  86.5885993  34.1696493  34.2438553  86.2815993  34.9496493
  34.4548553  85.8855993  33.6536493  34.4468553  86.4395993  34.2086493
  37.3068553  84.8335993  32.9126493  36.4888553  84.5655993  33.0526493
  37.2788553  85.6855993  33.0976493  37.1818553  84.9205993  32.9606493
  36.9068553  75.1465993  44.6716493  36.0428553  75.2305993  44.7516493
  37.1268553  74.6325993  45.3406493  36.8118553  75.0835993  44.7826493
  41.0098553  75.8945993  43.0456493  40.2728553  75.4405993  43.1586493
  41.5808553  75.4925993  43.5686493  40.9848553  75.7675993  43.1396493
  43.7418553  86.7425993  44.8336493  43.9478553  87.0435993  45.6256493
  43.6808553  87.4645993  44.3486493  43.7628553  86.8935993  44.8786493
  38.5128553  80.2235993  48.2496493  38.1908553  79.6475993  47.6796493
  38.1538553  80.9785993  48.0036493  38.4128553  80.2495993  48.1296493
  39.3088553  73.4755993  32.8766493  39.3868553  73.7225993  32.0436493
  38.5658553  73.8525993  33.1346493  39.2108553  73.5675993  32.7916493
  48.5538553  85.3815993  44.2916493  48.5218553  84.5195993  44.1566493
  47.8608553  85.6835993  43.8576493  48.4468553  85.2985993  44.2076493
  46.6588553  88.6415993  43.0886493  47.1858553  88.5585993  42.3976493
  46.2678553  87.8635993  43.1426493  46.6788553  88.5145993  42.9946493
  34.1268553  75.2295993  45.3196493  33.7838553  74.4625993  45.0856493
  33.4318553  75.7535993  45.3836493  33.9738553  75.1935993  45.2946493
  42.5318553  79.8935993  39.7896493  43.0828553  79.2865993  40.0896493
  42.1068553  80.1565993  40.5046493  42.5508553  79.8425993  39.9386493
  32.7798553  78.5435993  39.2756493  32.4118553  78.8455993  40.0066493
  33.3138553  77.9145993  39.5596493  32.8038553  78.4955993  39.4256493
  32.4678553  86.9515993  46.7866493  31.8938553  87.3675993  47.2956493
  33.2008553  87.4165993  46.8816493  32.4918553  87.0815993  46.8756493
  44.5018553  81.7245993  36.3516493  44.5698553  80.8745993  36.5326493
  43.6788553  81.8105993  36.0736493  44.3898553  81.6115993  36.3376493
  38.4208553  82.6155993  35.2896493  38.5208553  82.7545993  34.4346493
  39.2388553  82.5555993  35.5856493  38.5558553  82.6265993  35.2066493
  47.7758553  83.0975993  49.5026493  48.4098553  82.9275993  50.0766493
  48.1928553  83.5005993  48.8506493  47.9308553  83.1325993  49.4916493
  43.6558553  86.9445993  35.0916493  43.4048553  86.8165993  35.9176493
  43.3388553  86.2495993  34.6706493  43.5718553  86.8235993  35.1516493
  48.2998553  78.6025993  43.2116493  47.4668553  78.8525993  43.1396493
  48.2438553  77.7625993  43.4406493  48.1688553  78.5155993  43.2346493
  37.5598553  75.5905993  48.4056493  37.7938553  75.0145993  47.7926493
  36.7178553  75.4095993  48.5466493  37.4698553  75.4785993  48.3356493
  45.1868553  83.2085993  50.8576493  46.0578553  83.1725993  50.8216493
  44.9678553  83.6285993  50.1256493  45.2838553  83.2645993  50.7446493
  40.5418553  85.1525993  34.5216493  41.2588553  84.8055993  34.1656493
  40.5078553  85.9525993  34.1736493  40.6428553  85.2195993  34.4176493
  41.9508553  73.7935993  18.7604083  41.7058553  74.2815993  18.0804083
  42.8138553  73.7205993  18.6604083  42.0418553  73.8545993  18.6454083
  41.7598553  80.7095993  23.4314083  41.2358553  81.3055993  23.7944083
  42.1568553  80.3415993  24.1154083  41.7408553  80.7435993  23.5864083
  31.6288553  84.8495993  18.8874083  31.1878553  84.9675993  19.6304083
  31.3458553  84.0745993  18.6024083  31.5218553  84.7525993  18.9554083
  47.9038553  88.1505993  16.4024083  48.6048553  87.6315993  16.3984083
  47.3168553  87.7055993  15.9334083  47.9208553  88.0075993  16.3324083
  31.3718553  78.6415993  15.3944083  30.5938553  78.8035993  15.0344083
  31.4108553  77.7705993  15.4164083  31.2628553  78.5365993  15.3444083
  34.5108553  83.9045993  14.0664083  34.1188553  83.5335993  13.3804083
  34.4308553  83.3065993  14.6954083  34.4408553  83.7615993  14.0574083
  44.4308553  81.7765993  20.1074083  44.5108553  81.7805993  19.2384083
  43.8468553  81.1445993  20.2564083  44.3558553  81.6835993  20.0014083
  34.1378553  85.5455993  17.9664083  34.7458553  85.3755993  18.5694083
  33.3868553  85.4055993  18.3874083  34.1168553  85.4995993  18.1174083
  38.4198553  74.8805993  17.9154083  38.3498553  75.5575993  17.3694083
  39.1608553  74.4925993  17.6664083  38.5188553  74.9235993  17.7974083
  33.0288553  88.6365993  14.0434083  33.4958553  88.7205993  13.3114083
  33.4838553  88.0585993  14.5124083  33.1648553  88.5635993  14.0044083
  31.5688553  87.5845993  25.1424083  31.6978553  87.3045993  25.9584083
  30.9588553  87.0435993  24.8334083  31.4978553  87.4635993  25.2174083
  38.1428553  85.1095993  30.2094083  37.9068553  85.1065993  31.0494083
  37.3948553  84.9615993  29.7854083  37.9968553  85.0865993  30.2704083
  33.0148553  82.1055993  19.3444083  32.5528553  81.7135993  18.7174083
  33.7148553  81.5925993  19.4364083  33.0498553  81.9725993  19.2654083
  37.5228553  77.7155993  24.6914083  38.2008553  77.7335993  24.1424083
  37.4778553  76.8795993  24.9364083  37.6158553  77.5945993  24.6464083
  38.1248553  88.3015993  27.4724083  38.2628553  89.0615993  27.0654083
  38.9158553  87.9365993  27.4994083  38.2618553  88.3605993  27.4164083
  35.0158553  80.2055993  19.3674083  35.8328553  80.0185993  19.6104083
  34.5388553  79.5915993  19.7634083  35.0658553  80.0875993  19.4624083
  39.2198553  86.1865993  21.9774083  39.5678553  85.3875993  22.0074083
  39.8848553  86.6905993  21.7224083  39.3698553  86.1425993  21.9444083
  39.2768553  85.6355993  18.1884083  39.6078553  84.9915993  18.6744083
  39.5168553  85.4245993  17.3774083  39.3608553  85.5095993  18.1404083
  41.2448553  79.7665993  29.5274083  40.3968553  79.6675993  29.3494083
  41.2738553  80.5115993  29.9814083  41.1238553  79.8625993  29.5684083
  35.6128553  75.2995993  18.6334083  35.3168553  75.8005993  17.9834083
  36.4798553  75.3775993  18.5764083  35.6968553  75.3855993  18.5294083
  38.5918553  74.4415993  20.8564083  38.6648553  75.3015993  20.9854083
  38.5538553  74.3665993  19.9884083  38.5968553  74.5575993  20.7474083
  43.2648553  77.3675993  13.1554083  42.8148553  78.0485993  13.4624083
  43.3788553  76.8635993  13.8584083  43.2158553  77.3935993  13.3044083
  31.4708553  79.8665993  22.3574083  31.2148553  80.6975993  22.2824083
  30.8068553  79.4835993  22.7744083  31.3348553  79.9325993  22.4084083
  37.2208553  87.4205993  17.7374083  36.6418553  87.1455993  18.3294083
  37.8448553  86.8115993  17.7624083  37.2278553  87.2905993  17.8284083
  34.4998553  74.6835993  22.8484083  33.9788553  74.0555993  22.5404083
  35.0908553  74.2465993  23.3194083  34.5108553  74.5255993  22.8724083
  37.8058553  76.8165993  32.1464083  37.9228553  76.3625993  31.4104083
  38.0938553  77.6145993  31.9434083  37.8658553  76.8675993  32.0074083
  32.9258553  88.2465993  18.1884083  33.5818553  87.6715993  18.2034083
  33.3148553  88.9955993  17.9674083  33.0808553  88.2715993  18.1584083
  48.6588553  77.3405993  19.4504083  48.3128553  78.0185993  19.8764083
  48.0228553  76.7425993  19.4664083  48.5138553  77.3525993  19.5154083
  33.5388553  76.4135993  31.1304083  32.7608553  76.0235993  31.0584083
  34.0298553  76.0015993  30.5394083  33.4958553  76.2945993  31.0324083
  33.7438553  86.7335993  21.6884083  34.1668553  86.3775993  21.0144083
  34.0678553  86.3115993  22.3804083  33.8538553  86.6185993  21.6914083
  40.1878553  74.0565993  30.2984083  40.3658553  73.2475993  30.0234083
  40.0448553  74.4975993  29.5594083  40.1928553  74.0025993  30.1484083
  40.7818553  78.9825993  19.0714083  41.0688553  78.7505993  18.2814083
  41.5138553  79.0615993  19.5404083  40.9318553  78.9595993  19.0244083
  41.5038553  79.3215993  14.1924083  41.7848553  80.1095993  14.4414083
  40.7278553  79.4865993  13.8294083  41.4308553  79.4625993  14.1754083
  48.3338553  75.6635993  24.8194083  49.0908553  75.7355993  24.3914083
  48.3968553  74.8905993  25.2184083  48.4548553  75.5605993  24.8144083
  30.8868553  76.9615993  28.7164083  30.8828553  77.5485993  29.3624083
  31.4808553  77.2735993  28.1594083  30.9738553  77.0945993  28.7294083
  43.2248553  87.2955993  29.2584083  43.1908553  87.6775993  30.0424083
  44.0788553  87.2535993  29.0874083  43.3458553  87.3455993  29.3494083
  40.3628553  87.4925993  14.0084083  40.1818553  88.0375993  14.6654083
  41.1288553  87.7825993  13.7074083  40.4488553  87.6165993  14.0614083
  43.8698553  75.3885993  15.0624083  44.4098553  74.7065993  15.1384083
  43.9318553  75.7865993  15.8364083  43.9588553  75.3465993  15.1884083
  31.8238553  76.5565993  17.6314083  31.7098553  75.6925993  17.6624083
  31.3488553  76.8505993  18.3014083  31.7368553  76.4725993  17.7344083
  33.9658553  88.9665993  25.8464083  33.2678553  88.4585993  25.9724083
  34.2258553  88.7615993  25.0384083  33.9008553  88.8615993  25.7454083
  41.1278553  77.7645993  16.3764083  40.6198553  77.1025993  16.1224083
  41.1798553  78.2685993  15.6664083  41.0608553  77.7415993  16.2344083
  41.1278553  74.7055993  16.2674083  40.6728553  74.3035993  15.6414083
  41.9008553  74.8605993  15.8924083  41.1748553  74.6695993  16.1194083
  39.7258553  77.0725993  20.7894083  39.7998553  77.6405993  20.1314083
  39.8468553  77.5645993  21.4994083  39.7538553  77.2295993  20.7974083
  44.9508553  86.9075993  19.2014083  45.6518553  86.4255993  19.3904083
  44.2908553  86.3385993  19.2464083  44.9568553  86.7525993  19.2354083
  35.3268553  87.8175993  28.4134083  36.1678553  87.8805993  28.1914083
  35.2898553  88.2145993  29.1894083  35.4458553  87.8855993  28.4954083
  34.3338553  72.8955993  19.1374083  34.8698553  73.5835993  19.1274083
  34.3368553  72.6215993  18.3094083  34.4128553  72.9565993  19.0134083
  37.2898553  83.3285993  23.1624083  37.4618553  83.1185993  23.9914083
  36.6348553  82.7945993  22.9464083  37.2188553  83.2185993  23.2534083
  43.5178553  77.2425993  26.6774083  43.4228553  77.5615993  27.4834083
  42.9248553  76.6035993  26.6394083  43.4158553  77.1945993  26.7914083
  38.0398553  83.2665993  25.7524083  38.0928553  84.1135993  25.9544083
  37.7548553  82.8965993  26.4894083  38.0058553  83.3365993  25.8904083
  44.2168553  83.9615993  24.8824083  43.7028553  83.5495993  25.4534083
  44.0908553  84.8055993  25.0634083  44.1228553  84.0255993  24.9934083
  44.7738553  73.1865993  19.5134083  44.8228553  72.8685993  20.3244083
  45.0968553  72.5425993  19.0204083  44.8288553  73.0445993  19.5604083
  30.8608553  87.6375993  31.9634083  31.6168553  87.9865993  32.2214083
  31.0378553  86.7845993  31.9064083  30.9988553  87.5625993  31.9934083
  47.2378553  77.4225993  27.8214083  48.0098553  77.1975993  28.1584083
  46.7628553  77.6395993  28.5214083  47.2818553  77.4215993  27.9744083
  34.7818553  76.7055993  20.7914083  35.0538553  76.2755993  20.0834083
  34.6058553  76.0695993  21.3624083  34.7958553  76.5485993  20.7714083
  47.4698553  84.4005993  15.0094083  47.5888553  84.1135993  15.8244083
  48.2768553  84.4215993  14.6794083  47.6058553  84.3615993  15.0814083
  34.6058553  84.1325993  20.3404083  35.4568553  84.0525993  20.1674083
  34.2488553  83.4505993  19.9284083  34.6788553  84.0195993  20.2534083
  32.9228553  77.8075993  23.8734083  33.7658553  78.0275993  23.8304083
  32.5338553  78.3805993  23.3424083  32.9898553  77.9245993  23.7884083
  45.3648553  80.9375993  14.5944083  45.1448553  81.6685993  14.1724083
  44.9168553  80.9885993  15.3414083  45.2658553  81.0525993  14.6424083
  36.9738553  84.1395993  18.5754083  37.6868553  84.6345993  18.6654083
  37.1958553  83.5725993  17.9494083  37.1118553  84.1285993  18.4964083
  49.5518553  75.7985993  14.0474083  48.8898553  75.2305993  14.0704083
  49.3588553  76.3105993  13.3674083  49.4258553  75.7905993  13.9504083
  31.1298553  85.7825993  21.8954083  30.4628553  86.2705993  22.1714083
  31.8098553  86.3275993  21.9244083  31.1318553  85.9345993  21.9404083
  38.7768553  79.4925993  31.9914083  38.2928553  80.0695993  32.4334083
  38.7488553  79.7875993  31.1704083  38.7008553  79.6215993  31.9354083
  49.8748553  80.1765993  26.6034083  50.0898553  79.3765993  26.3274083
  49.0248553  80.2365993  26.4144083  49.7808553  80.0675993  26.5344083
  31.1958553  82.4665993  16.9984083  31.0108553  81.6275993  17.1504083
  31.8548553  82.4305993  16.4284083  31.2658553  82.3375993  16.9364083
  47.5538553  75.3565993  16.3264083  48.2998553  74.9495993  16.5254083
  47.8168553  76.0715993  15.9014083  47.7028553  75.4025993  16.2934083
  41.4968553  87.8425993  20.9024083  40.9738553  88.4765993  20.6094083
  41.8068553  87.4785993  20.1734083  41.4648553  87.8825993  20.7514083
  31.3678553  86.6305993  16.5734083  31.9198553  87.1995993  16.9374083
  31.1358553  86.1155993  17.2384083  31.4148553  86.6385993  16.7254083
  35.5718553  85.6305993  23.6624083  36.0388553  85.9195993  24.3404083
  36.1438553  85.1525993  23.2084083  35.7258553  85.6025993  23.6954083
  44.0078553  77.6445993  21.3994083  44.3518553  77.7965993  22.1864083
  43.5548553  76.9065993  21.5124083  43.9918553  77.5575993  21.5324083
  31.1978553  85.0795993  14.2014083  31.9538553  84.6475993  14.2594083
  31.2128553  85.6115993  14.8924083  31.3118553  85.0945993  14.3124083
  32.1378553  83.3005993  22.2064083  32.5688553  83.1715993  21.4594083
  31.9328553  84.1485993  22.1804083  32.1708553  83.4065993  22.0924083
  38.4838553  76.8645993  15.8564083  38.4818553  76.7475993  14.9914083
  38.3028553  77.7125993  15.9484083  38.4568553  76.9725993  15.7424083
  36.2218553  86.8165993  20.4884083  36.3478553  87.6595993  20.6754083
  36.8898553  86.4175993  20.8844083  36.3398553  86.8825993  20.5744083
  34.3518553  80.2995993  30.3504083  33.8158553  79.7935993  30.8184083
  34.3718553  79.9095993  29.5704083  34.2748553  80.1665993  30.3044083
  34.8368553  79.6965993  15.4904083  34.7088553  79.2485993  16.2284083
  34.2548553  79.3545993  14.9384083  34.7318553  79.5795993  15.5184083
  35.0038553  81.5265993  22.0894083  34.2228553  81.4675993  21.7064083
  35.0758553  80.7745993  22.5264083  34.8988553  81.4075993  22.0974083
  35.4338553  81.2635993  25.5574083  35.4588553  80.5885993  25.0064083
  34.7878553  81.7595993  25.2454083  35.3428553  81.2365993  25.4304083
  45.3288553  78.9765993  23.9534083  44.6668553  79.3045993  24.4164083
  45.5158553  79.6105993  23.3844083  45.2588553  79.1185993  23.9374083
  41.9738553  74.8825993  27.3824083  42.1228553  74.0575993  27.1394083
  42.3528553  74.9375993  28.1664083  42.0518553  74.7685993  27.4624083
  43.5218553  76.9455993  17.4644083  44.0118553  77.6625993  17.3874083
  42.7318553  77.2065993  17.2014083  43.4778553  77.0895993  17.4144083
  33.2328553  82.6185993  31.1164083  33.1958553  83.1195993  30.4024083
  33.5638553  81.8665993  30.8214083  33.2758553  82.5805993  30.9674083
  44.8358553  84.8235993  29.3744083  45.3198553  85.5415993  29.4724083
  45.2298553  84.3965993  28.7234083  44.9658553  84.8665993  29.2924083
  39.1318553  87.6685993  30.5514083  39.4858553  87.4905993  31.3284083
  38.6958553  86.9395993  30.3524083  39.1198553  87.5345993  30.6374083
  40.1038553  78.4155993  23.1894083  40.5838553  79.1145993  23.3974083
  40.4768553  77.7685993  23.6404083  40.2298553  78.4235993  23.2864083
  42.2928553  81.5845993  15.4634083  42.2848553  82.3065993  14.9734083
  41.6538553  81.7195993  16.0404083  42.1978553  81.7115993  15.4764083
  47.2648553  85.4545993  19.4444083  47.6208553  85.1045993  20.1594083
  47.2568553  84.7935993  18.8744083  47.3168553  85.3045993  19.4654083
  43.3098553  88.5205993  23.2884083  42.7068553  88.2245993  22.7314083
  43.8548553  88.9725993  22.7794083  43.3008553  88.5435993  23.1304083
  43.3228553  85.3715993  22.6884083  42.5258553  85.5955993  22.9624083
  43.5808553  84.7775993  23.2734083  43.2428553  85.3165993  22.8154083
  36.8858553  73.9265993  15.1244083  36.9828553  73.8195993  15.9854083
  36.1778553  74.4325993  15.0594083  36.7958553  73.9855993  15.2424083
  46.5828553  83.3695993  27.5344083  46.6378553  83.4945993  26.6724083
  47.3358553  83.6895993  27.8364083  46.7018553  83.4345993  27.4514083
  34.0078553  82.2335993  16.3674083  34.3318553  81.4545993  16.1454083
  34.6538553  82.6015993  16.8224083  34.1508553  82.1725993  16.4014083
  42.3138553  83.1755993  27.1344083  42.1588553  83.7855993  27.7384083
  42.8478553  82.6175993  27.5404083  42.3698553  83.1835993  27.2834083
  31.0048553  73.8945993  17.3354083  31.1338553  73.1865993  16.8434083
  30.6378553  73.5765993  18.0604083  30.9698553  73.7425993  17.3704083
  40.6978553  81.5755993  17.7924083  40.7568553  82.2255993  18.3714083
  40.5088553  80.8795993  18.2834083  40.6788553  81.5685993  17.9504083
  45.9238553  85.9045993  23.6614083  45.4448553  86.2025993  22.9954083
  45.5678553  85.1285993  23.8394083  45.8008553  85.8335993  23.5894083
  35.1938553  76.0925993  14.3044083  34.6828553  76.1455993  13.5984083
  35.9778553  76.3325993  14.0084083  35.2338553  76.1355993  14.1564083
  39.9208553  83.6225993  22.2234083  39.0738553  83.4285993  22.3044083
  40.2448553  83.4575993  23.0164083  39.8428553  83.5695993  22.3524083
  33.7688553  83.3155993  24.5394083  34.4908553  83.8035993  24.5024083
  33.4988553  83.2855993  23.7104083  33.8358553  83.3835993  24.4114083
  36.9988553  78.4865993  21.2744083  37.8448553  78.2965993  21.3724083
  36.6288553  77.7095993  21.1364083  37.0688553  78.3435993  21.2684083
  31.8198553  79.8245993  17.9294083  32.3088553  79.5325993  18.5904083
  31.9488553  79.2315993  17.3024083  31.9108553  79.6935993  17.9344083
  46.8548553  82.8465993  24.7804083  46.8478553  82.0705993  25.1784083
  46.0138553  83.0805993  24.7734083  46.7298553  82.7665993  24.8384083
  36.3448553  81.2585993  13.4154083  35.7348553  80.8535993  13.8894083
  35.9588553  81.3765993  12.6424083  36.1978553  81.2155993  13.3714083
  33.1638553  84.3675993  28.8174083  32.7428553  83.8495993  28.2564083
  32.8118553  85.1535993  28.6744083  33.0498553  84.4075993  28.7134083
  48.1108553  82.9175993  22.2174083  47.8248553  83.3185993  22.9374083
  48.9708553  82.8555993  22.3444083  48.1958553  82.9675993  22.3424083
  37.7998553  79.7195993  16.1254083  38.0718553  80.5455993  16.1924083
  36.9368553  79.7945993  16.0294083  37.7128553  79.8525993  16.1204083
  45.7728553  76.8415993  30.7574083  45.2478553  77.3005993  31.2814083
  45.4118553  76.0465993  30.7514083  45.6418553  76.7915993  30.8334083
  31.2798553  75.6895993  22.6614083  31.3238553  76.0335993  21.8604083
  32.0348553  75.9265993  23.0284083  31.3978553  75.7755993  22.5974083
  49.2418553  88.5505993  22.7464083  49.5318553  88.8075993  21.9654083
  49.9368553  88.6465993  23.2654083  49.3878553  88.6025993  22.7074083
  44.2648553  80.4105993  30.8334083  44.3378553  80.5145993  31.6964083
  43.6308553  80.9685993  30.6124083  44.1818553  80.5085993  30.9284083
  46.5328553  80.7295993  29.1984083  46.8518553  81.5155993  29.4014083
  46.1628553  80.4595993  29.9414083  46.5258553  80.8055993  29.3384083
  45.8468553  87.1535993  14.7284083  46.1808553  86.3475993  14.7634083
  45.0918553  87.0815993  15.1584083  45.7848553  87.0235993  14.7974083
  46.3288553  78.9875993  20.3874083  45.5838553  78.6645993  20.7054083
  46.3308553  79.8135993  20.6674083  46.2188553  79.0615993  20.4754083
  49.2308553  81.2715993  31.9334083  49.1788553  80.9305993  31.1324083
  49.9678553  81.7385993  31.9114083  49.3318553  81.2905993  31.8114083
  48.7688553  84.9475993  28.1394083  49.3968553  84.3985993  27.8834083
  48.7078553  85.5125993  27.4774083  48.8528553  84.9505993  28.0034083
  43.2208553  85.0285993  14.1314083  43.9048553  84.5145993  13.9624083
  42.8038553  85.0745993  13.3664083  43.2598553  84.9595993  13.9934083
  37.9028553  86.1785993  25.4354083  37.6048553  86.7705993  26.0024083
  37.9578553  86.6205993  24.6864083  37.8668553  86.3315993  25.4084083
  35.8818553  85.1285993  28.8334083  35.0758553  84.8385993  29.0004083
  35.7928553  85.9965993  28.8394083  35.7498553  85.2135993  28.8584083
  45.2408553  75.3175993  27.8484083  45.9848553  75.7695993  27.7854083
  44.6748553  75.7875993  27.3794083  45.2678553  75.4545993  27.7704083
  40.4188553  82.6015993  24.9264083  40.8948553  82.9755993  25.5544083
  39.5958553  82.7355993  25.1854083  40.3678553  82.6765993  25.0574083
  37.1288553  78.2045993  27.6674083  37.2898553  77.4605993  28.0944083
  37.0838553  77.9555993  26.8324083  37.1458553  78.0575993  27.6074083
  46.5258553  73.2975993  25.5184083  46.2458553  74.1225993  25.4744083
  47.2418553  73.3505993  26.0144083  46.5908553  73.4275993  25.5854083
  38.8808553  74.0125993  27.5474083  39.5858553  74.3325993  27.1454083
  39.1218553  73.2055993  27.7744083  39.0198553  73.9405993  27.5214083
  37.8658553  88.2225993  23.5434083  37.2418553  88.8045993  23.3614083
  38.1138553  87.9365993  22.7574083  37.8098553  88.2665993  23.4004083
  42.1748553  84.8565993  30.5324083  42.9318553  85.1425993  30.2064083
  41.6278553  84.9085993  29.8544083  42.2058553  84.9065993  30.3834083
  46.0838553  87.4065993  29.0364083  46.4298553  87.6765993  29.7904083
  46.3778553  87.9885993  28.4564083  46.1788553  87.5325993  29.0624083
  47.9468553  79.5525993  14.3754083  48.3248553  80.2295993  13.9754083
  47.1048553  79.7765993  14.4064083  47.8778553  79.6855993  14.3204083
  39.4598553  82.9985993  13.4584083  38.6548553  82.8215993  13.1734083
  39.4268553  83.8495993  13.6504083  39.3358553  83.0975993  13.4454083
  35.3898553  79.0655993  23.6084083  35.8298553  78.9625993  22.8624083
  35.9348553  78.7525993  24.2134083  35.5348553  79.0045993  23.5874083
  43.4058553  78.1675993  29.2004083  42.7578553  78.6375993  29.5484083
  43.9708553  78.0785993  29.8594083  43.3938553  78.2235993  29.3494083
  43.0938553  79.7045993  25.4984083  43.3958553  80.1245993  26.2014083
  43.1298553  78.8645993  25.7304083  43.1438553  79.6425993  25.6364083
  45.6418553  79.1515993  17.7504083  45.8488553  78.9505993  18.5744083
  46.3978553  79.4195993  17.4084083  45.7838553  79.1615993  17.8214083
  38.9368553  74.0505993  23.6554083  38.1108553  73.9015993  23.8924083
  38.8968553  74.0855993  22.7844083  38.8088553  74.0335993  23.5614083
  46.6638553  75.2345993  19.2244083  45.9498553  74.7635993  19.3954083
  46.5018553  75.5755993  18.4384083  46.5348553  75.2155993  19.1334083
  47.1068553  83.1785993  17.6044083  47.5828553  82.4495993  17.5564083
  46.2858553  82.8925993  17.5284083  47.0558553  83.0285993  17.5854083
  40.5778553  85.0905993  28.4434083  39.7828553  85.0265993  28.7944083
  40.6488553  85.9375993  28.2484083  40.4708553  85.2055993  28.4664083
  31.5018553  74.4485993  29.6904083  31.3618553  75.2435993  29.3594083
  30.7158553  74.2055993  29.9794083  31.3648553  74.5305993  29.6844083
  34.5658553  77.1925993  16.9154083  34.6918553  76.8635993  16.1174083
  33.7538553  76.9435993  17.1144083  34.4648553  77.1075993  16.8274083
  43.3228553  84.3455993  19.9594083  43.3988553  84.6865993  20.7584083
  43.4918553  83.4985993  20.0804083  43.3588553  84.2705993  20.0954083
  40.8448553  83.6195993  19.5244083  40.5468553  83.3045993  20.2814083
  41.5398553  84.0925993  19.7594083  40.9038553  83.6425993  19.6714083
  41.0668553  87.7375993  27.5514083  41.7538553  87.6235993  28.0764083
  41.2008553  88.5285993  27.2074083  41.1878553  87.8375993  27.5784083
  49.2428553  80.3465993  29.3624083  48.3878553  80.2245993  29.4884083
  49.3958553  79.9515993  28.5994083  49.1388553  80.2695993  29.2684083
  43.7558553  81.0115993  27.9384083  43.5008553  80.2925993  28.3604083
  44.5768553  81.1275993  28.2084083  43.8398553  80.9225993  28.0404083
  41.6898553  82.2015993  31.1254083  42.0128553  82.8875993  30.6934083
  40.9858553  82.5245993  31.5274083  41.6328553  82.3505993  31.1204083
  41.4748553  85.6655993  24.9844083  40.7808553  86.0675993  25.3274083
  42.1518553  86.0985993  25.3234083  41.4718553  85.7885993  25.0854083
  46.8518553  88.2585993  31.5644083  47.6278553  87.8685993  31.6474083
  46.3828553  87.9225993  32.2194083  46.8968553  88.1515993  31.6734083
  34.5428553  79.2035993  27.3314083  34.9178553  79.8225993  26.8444083
  35.2168553  78.7295993  27.6164083  34.6978553  79.2255993  27.3014083
  32.3178553  77.6515993  26.6064083  32.3948553  77.4825993  25.7534083
  33.0638553  78.0575993  26.8034083  32.4388553  77.6865993  26.5094083
  47.8768553  80.2915993  17.0464083  47.9798553  80.2335993  16.1824083
  48.6178553  79.9595993  17.3644083  48.0018553  80.2345993  16.9654083
  34.8718553  75.0615993  29.0174083  34.7908553  74.2175993  29.2234083
  34.5578553  75.1055993  28.2044083  34.8138553  74.9435993  28.9274083
  41.7968553  87.2565993  18.1534083  41.5918553  88.0895993  17.9944083
  41.0218553  86.8745993  18.2754083  41.6518553  87.3235993  18.1484083
  46.9788553  80.4375993  26.4024083  46.9768553  79.5745993  26.5264083
  47.0458553  80.7615993  27.2094083  46.9888553  80.3575993  26.5394083
  31.7148553  82.8775993  26.8304083  32.0348553  83.0965993  26.0494083
  31.6148553  82.0125993  26.7754083  31.7468553  82.7825993  26.7074083
  33.1708553  78.8135993  13.4484083  32.4988553  78.8275993  14.0044083
  33.2658553  77.9655993  13.2644083  33.0858553  78.6905993  13.5034083
  42.8578553  75.2375993  30.1844083  42.9498553  75.9495993  30.6784083
  42.2208553  74.7925993  30.5814083  42.7768553  75.2765993  30.3164083
  41.8518553  75.4275993  21.0384083  41.1518553  75.9455993  20.9824083
  41.8898553  75.0475993  20.2544083  41.7538553  75.4485993  20.9144083
  37.1588553  87.5185993  14.5624083  37.5998553  87.5985993  15.3104083
  36.3538553  87.3025993  14.8204083  37.1048553  87.4985993  14.7114083
  45.4498553  75.9435993  23.8384083  46.3048553  76.0425993  23.9834083
  45.0808553  76.4965993  24.4034083  45.5218553  76.0405993  23.9434083
  36.4778553  82.1695993  28.2154083  36.0818553  82.9435993  28.2904083
  36.0718553  81.7965993  27.5394083  36.3598553  82.2285993  28.1264083
  45.7538553  81.2235993  22.3294083  46.4198553  81.7645993  22.4894083
  45.4088553  81.5345993  21.5904083  45.8008553  81.3495993  22.2444083
  34.4878553  86.5885993  15.1634083  34.2438553  86.2815993  15.9434083
  34.4548553  85.8855993  14.6474083  34.4468553  86.4395993  15.2024083
  37.3068553  84.8335993  13.9064083  36.4888553  84.5655993  14.0464083
  37.2788553  85.6855993  14.0914083  37.1818553  84.9205993  13.9544083
  36.9068553  75.1465993  25.6654083  36.0428553  75.2305993  25.7454083
  37.1268553  74.6325993  26.3344083  36.8118553  75.0835993  25.7764083
  48.9248553  73.7815993  26.9944083  48.8728553  73.7375993  27.8644083
  49.6118553  73.2785993  26.8044083  49.0188553  73.7015993  27.0944083
  41.0098553  75.8945993  24.0394083  40.2728553  75.4405993  24.1524083
  41.5808553  75.4925993  24.5624083  40.9848553  75.7675993  24.1334083
  43.7418553  86.7425993  25.8274083  43.9478553  87.0435993  26.6194083
  43.6808553  87.4645993  25.3424083  43.7628553  86.8935993  25.8724083
  38.5128553  80.2235993  29.2434083  38.1908553  79.6475993  28.6734083
  38.1538553  80.9785993  28.9974083  38.4128553  80.2495993  29.1234083
  39.3088553  73.4755993  13.8704083  39.3868553  73.7225993  13.0374083
  38.5658553  73.8525993  14.1284083  39.2108553  73.5675993  13.7854083
  48.5538553  85.3815993  25.2854083  48.5218553  84.5195993  25.1504083
  47.8608553  85.6835993  24.8514083  48.4468553  85.2985993  25.2014083
  46.6588553  88.6415993  24.0824083  47.1858553  88.5585993  23.3914083
  46.2678553  87.8635993  24.1364083  46.6788553  88.5145993  23.9884083
  34.1268553  75.2295993  26.3134083  33.7838553  74.4625993  26.0794083
  33.4318553  75.7535993  26.3774083  33.9738553  75.1935993  26.2884083
  43.1728553  74.0855993  23.2904083  43.8428553  74.6295993  23.4174083
  42.6698553  74.5095993  22.7174083  43.1978553  74.2285993  23.2244083
  42.5318553  79.8935993  20.7834083  43.0828553  79.2865993  21.0834083
  42.1068553  80.1565993  21.4984083  42.5508553  79.8425993  20.9324083
  32.7798553  78.5435993  20.2694083  32.4118553  78.8455993  21.0004083
  33.3138553  77.9145993  20.5534083  32.8038553  78.4955993  20.4194083
  32.4678553  86.9515993  27.7804083  31.8938553  87.3675993  28.2894083
  33.2008553  87.4165993  27.8754083  32.4918553  87.0815993  27.8694083
  44.5018553  81.7245993  17.3454083  44.5698553  80.8745993  17.5264083
  43.6788553  81.8105993  17.0674083  44.3898553  81.6115993  17.3314083
  38.4208553  82.6155993  16.2834083  38.5208553  82.7545993  15.4284083
  39.2388553  82.5555993  16.5794083  38.5558553  82.6265993  16.2004083
  47.7758553  83.0975993  30.4964083  48.4098553  82.9275993  31.0704083
  48.1928553  83.5005993  29.8444083  47.9308553  83.1325993  30.4854083
  43.6558553  86.9445993  16.0854083  43.4048553  86.8165993  16.9114083
  43.3388553  86.2495993  15.6644083  43.5718553  86.8235993  16.1454083
  48.4008553  77.6615993  31.2344083  48.2048553  78.3055993  31.7894083
  47.6788553  77.1715993  31.2264083  48.2658553  77.6845993  31.3154083
  48.2998553  78.6025993  24.2054083  47.4668553  78.8525993  24.1334083
  48.2438553  77.7625993  24.4344083  48.1688553  78.5155993  24.2284083
  37.5598553  75.5905993  29.3994083  37.7938553  75.0145993  28.7864083
  36.7178553  75.4095993  29.5404083  37.4698553  75.4785993  29.3294083
  45.1868553  83.2085993  31.8514083  46.0578553  83.1725993  31.8154083
  44.9678553  83.6285993  31.1194083  45.2838553  83.2645993  31.7384083
  40.5418553  85.1525993  15.5154083  41.2588553  84.8055993  15.1594083
  40.5078553  85.9525993  15.1674083  40.6428553  85.2195993  15.4114083
  41.7598553  80.7095993   4.4251673  41.2358553  81.3055993   4.7881673
  42.1568553  80.3415993   5.1091673  41.7408553  80.7435993   4.5801673
  31.5688553  87.5845993   6.1361673  31.6978553  87.3045993   6.9521673
  30.9588553  87.0435993   5.8271673  31.4978553  87.4635993   6.2111673
  38.1428553  85.1095993  11.2031673  37.9068553  85.1065993  12.0431673
  37.3948553  84.9615993  10.7791673  37.9968553  85.0865993  11.2641673
  37.5228553  77.7155993   5.6851673  38.2008553  77.7335993   5.1361673
  37.4778553  76.8795993   5.9301673  37.6158553  77.5945993   5.6401673
  38.1248553  88.3015993   8.4661673  38.2628553  89.0615993   8.0591673
  38.9158553  87.9365993   8.4931673  38.2618553  88.3605993   8.4101673
  39.2198553  86.1865993   2.9711673  39.5678553  85.3875993   3.0011673
  39.8848553  86.6905993   2.7161673  39.3698553  86.1425993   2.9381673
  41.2448553  79.7665993  10.5211673  40.3968553  79.6675993  10.3431673
  41.2738553  80.5115993  10.9751673  41.1238553  79.8625993  10.5621673
  45.8028553  72.7265993   9.6351673  45.6448553  73.4955993   9.2531673
  45.0308553  72.5065993   9.9791673  45.6648553  72.8075993   9.6301673
  31.4708553  79.8665993   3.3511673  31.2148553  80.6975993   3.2761673
  30.8068553  79.4835993   3.7681673  31.3348553  79.9325993   3.4021673
  34.4998553  74.6835993   3.8421673  33.9788553  74.0555993   3.5341673
  35.0908553  74.2465993   4.3131673  34.5108553  74.5255993   3.8661673
  37.8058553  76.8165993  13.1401673  37.9228553  76.3625993  12.4041673
  38.0938553  77.6145993  12.9371673  37.8658553  76.8675993  13.0011673
  33.5388553  76.4135993  12.1241673  32.7608553  76.0235993  12.0521673
  34.0298553  76.0015993  11.5331673  33.4958553  76.2945993  12.0261673
  33.7438553  86.7335993   2.6821673  34.1668553  86.3775993   2.0081673
  34.0678553  86.3115993   3.3741673  33.8538553  86.6185993   2.6851673
  40.1878553  74.0565993  11.2921673  40.3658553  73.2475993  11.0171673
  40.0448553  74.4975993  10.5531673  40.1928553  74.0025993  11.1421673
  48.3338553  75.6635993   5.8131673  49.0908553  75.7355993   5.3851673
  48.3968553  74.8905993   6.2121673  48.4548553  75.5605993   5.8081673
  30.8868553  76.9615993   9.7101673  30.8828553  77.5485993  10.3561673
  31.4808553  77.2735993   9.1531673  30.9738553  77.0945993   9.7231673
  43.2248553  87.2955993  10.2521673  43.1908553  87.6775993  11.0361673
  44.0788553  87.2535993  10.0811673  43.3458553  87.3455993  10.3431673
  33.9658553  88.9665993   6.8401673  33.2678553  88.4585993   6.9661673
  34.2258553  88.7615993   6.0321673  33.9008553  88.8615993   6.7391673
  35.3268553  87.8175993   9.4071673  36.1678553  87.8805993   9.1851673
  35.2898553  88.2145993  10.1831673  35.4458553  87.8855993   9.4891673
  37.2898553  83.3285993   4.1561673  37.4618553  83.1185993   4.9851673
  36.6348553  82.7945993   3.9401673  37.2188553  83.2185993   4.2471673
  43.5178553  77.2425993   7.6711673  43.4228553  77.5615993   8.4771673
  42.9248553  76.6035993   7.6331673  43.4158553  77.1945993   7.7851673
  38.0398553  83.2665993   6.7461673  38.0928553  84.1135993   6.9481673
  37.7548553  82.8965993   7.4831673  38.0058553  83.3365993   6.8841673
  44.2168553  83.9615993   5.8761673  43.7028553  83.5495993   6.4471673
  44.0908553  84.8055993   6.0571673  44.1228553  84.0255993   5.9871673
  30.8608553  87.6375993  12.9571673  31.6168553  87.9865993  13.2151673
  31.0378553  86.7845993  12.9001673  30.9988553  87.5625993  12.9871673
  47.2378553  77.4225993   8.8151673  48.0098553  77.1975993   9.1521673
  46.7628553  77.6395993   9.5151673  47.2818553  77.4215993   8.9681673
  32.9228553  77.8075993   4.8671673  33.7658553  78.0275993   4.8241673
  32.5338553  78.3805993   4.3361673  32.9898553  77.9245993   4.7821673
  31.1298553  85.7825993   2.8891673  30.4628553  86.2705993   3.1651673
  31.8098553  86.3275993   2.9181673  31.1318553  85.9345993   2.9341673
  38.7768553  79.4925993  12.9851673  38.2928553  80.0695993  13.4271673
  38.7488553  79.7875993  12.1641673  38.7008553  79.6215993  12.9291673
  49.8748553  80.1765993   7.5971673  50.0898553  79.3765993   7.3211673
  49.0248553  80.2365993   7.4081673  49.7808553  80.0675993   7.5281673
  35.5718553  85.6305993   4.6561673  36.0388553  85.9195993   5.3341673
  36.1438553  85.1525993   4.2021673  35.7258553  85.6025993   4.6891673
  44.0078553  77.6445993   2.3931673  44.3518553  77.7965993   3.1801673
  43.5548553  76.9065993   2.5061673  43.9918553  77.5575993   2.5261673
  32.1378553  83.3005993   3.2001673  32.5688553  83.1715993   2.4531673
  31.9328553  84.1485993   3.1741673  32.1708553  83.4065993   3.0861673
  34.3518553  80.2995993  11.3441673  33.8158553  79.7935993  11.8121673
  34.3718553  79.9095993  10.5641673  34.2748553  80.1665993  11.2981673
  35.0038553  81.5265993   3.0831673  34.2228553  81.4675993   2.7001673
  35.0758553  80.7745993   3.5201673  34.8988553  81.4075993   3.0911673
  35.4338553  81.2635993   6.5511673  35.4588553  80.5885993   6.0001673
  34.7878553  81.7595993   6.2391673  35.3428553  81.2365993   6.4241673
  45.3288553  78.9765993   4.9471673  44.6668553  79.3045993   5.4101673
  45.5158553  79.6105993   4.3781673  45.2588553  79.1185993   4.9311673
  41.9738553  74.8825993   8.3761673  42.1228553  74.0575993   8.1331673
  42.3528553  74.9375993   9.1601673  42.0518553  74.7685993   8.4561673
  33.2328553  82.6185993  12.1101673  33.1958553  83.1195993  11.3961673
  33.5638553  81.8665993  11.8151673  33.2758553  82.5805993  11.9611673
  44.8358553  84.8235993  10.3681673  45.3198553  85.5415993  10.4661673
  45.2298553  84.3965993   9.7171673  44.9658553  84.8665993  10.2861673
  39.1318553  87.6685993  11.5451673  39.4858553  87.4905993  12.3221673
  38.6958553  86.9395993  11.3461673  39.1198553  87.5345993  11.6311673
  40.1038553  78.4155993   4.1831673  40.5838553  79.1145993   4.3911673
  40.4768553  77.7685993   4.6341673  40.2298553  78.4235993   4.2801673
  43.3098553  88.5205993   4.2821673  42.7068553  88.2245993   3.7251673
  43.8548553  88.9725993   3.7731673  43.3008553  88.5435993   4.1241673
  43.3228553  85.3715993   3.6821673  42.5258553  85.5955993   3.9561673
  43.5808553  84.7775993   4.2671673  43.2428553  85.3165993   3.8091673
  46.5828553  83.3695993   8.5281673  46.6378553  83.4945993   7.6661673
  47.3358553  83.6895993   8.8301673  46.7018553  83.4345993   8.4451673
  47.6148553  73.6675993  11.5151673  46.9778553  73.2675993  11.0731673
  47.6408553  73.2365993  12.2731673  47.5248553  73.5455993  11.5611673
  42.3138553  83.1755993   8.1281673  42.1588553  83.7855993   8.7321673
  42.8478553  82.6175993   8.5341673  42.3698553  83.1835993   8.2771673
  45.9238553  85.9045993   4.6551673  45.4448553  86.2025993   3.9891673
  45.5678553  85.1285993   4.8331673  45.8008553  85.8335993   4.5831673
  39.9208553  83.6225993   3.2171673  39.0738553  83.4285993   3.2981673
  40.2448553  83.4575993   4.0101673  39.8428553  83.5695993   3.3461673
  33.7688553  83.3155993   5.5331673  34.4908553  83.8035993   5.4961673
  33.4988553  83.2855993   4.7041673  33.8358553  83.3835993   5.4051673
  36.9988553  78.4865993   2.2681673  37.8448553  78.2965993   2.3661673
  36.6288553  77.7095993   2.1301673  37.0688553  78.3435993   2.2621673
  46.8548553  82.8465993   5.7741673  46.8478553  82.0705993   6.1721673
  46.0138553  83.0805993   5.7671673  46.7298553  82.7665993   5.8321673
  33.1638553  84.3675993   9.8111673  32.7428553  83.8495993   9.2501673
  32.8118553  85.1535993   9.6681673  33.0498553  84.4075993   9.7071673
  48.1108553  82.9175993   3.2111673  47.8248553  83.3185993   3.9311673
  48.9708553  82.8555993   3.3381673  48.1958553  82.9675993   3.3361673
  45.7728553  76.8415993  11.7511673  45.2478553  77.3005993  12.2751673
  45.4118553  76.0465993  11.7451673  45.6418553  76.7915993  11.8271673
  31.2798553  75.6895993   3.6551673  31.3238553  76.0335993   2.8541673
  32.0348553  75.9265993   4.0221673  31.3978553  75.7755993   3.5911673
  49.2418553  88.5505993   3.7401673  49.5318553  88.8075993   2.9591673
  49.9368553  88.6465993   4.2591673  49.3878553  88.6025993   3.7011673
  44.2648553  80.4105993  11.8271673  44.3378553  80.5145993  12.6901673
  43.6308553  80.9685993  11.6061673  44.1818553  80.5085993  11.9221673
  46.5328553  80.7295993  10.1921673  46.8518553  81.5155993  10.3951673
  46.1628553  80.4595993  10.9351673  46.5258553  80.8055993  10.3321673
  49.2308553  81.2715993  12.9271673  49.1788553  80.9305993  12.1261673
  49.9678553  81.7385993  12.9051673  49.3318553  81.2905993  12.8051673
  48.7688553  84.9475993   9.1331673  49.3968553  84.3985993   8.8771673
  48.7078553  85.5125993   8.4711673  48.8528553  84.9505993   8.9971673
  37.9028553  86.1785993   6.4291673  37.6048553  86.7705993   6.9961673
  37.9578553  86.6205993   5.6801673  37.8668553  86.3315993   6.4021673
  35.8818553  85.1285993   9.8271673  35.0758553  84.8385993   9.9941673
  35.7928553  85.9965993   9.8331673  35.7498553  85.2135993   9.8521673
  45.2408553  75.3175993   8.8421673  45.9848553  75.7695993   8.7791673
  44.6748553  75.7875993   8.3731673  45.2678553  75.4545993   8.7641673
  40.4188553  82.6015993   5.9201673  40.8948553  82.9755993   6.5481673
  39.5958553  82.7355993   6.1791673  40.3678553  82.6765993   6.0511673
  37.1288553  78.2045993   8.6611673  37.2898553  77.4605993   9.0881673
  37.0838553  77.9555993   7.8261673  37.1458553  78.0575993   8.6011673
  46.5258553  73.2975993   6.5121673  46.2458553  74.1225993   6.4681673
  47.2418553  73.3505993   7.0081673  46.5908553  73.4275993   6.5791673
  38.8808553  74.0125993   8.5411673  39.5858553  74.3325993   8.1391673
  39.1218553  73.2055993   8.7681673  39.0198553  73.9405993   8.5151673
  37.8658553  88.2225993   4.5371673  37.2418553  88.8045993   4.3551673
  38.1138553  87.9365993   3.7511673  37.8098553  88.2665993   4.3941673
  42.1748553  84.8565993  11.5261673  42.9318553  85.1425993  11.2001673
  41.6278553  84.9085993  10.8481673  42.2058553  84.9065993  11.3771673
  46.0838553  87.4065993  10.0301673  46.4298553  87.6765993  10.7841673
  46.3778553  87.9885993   9.4501673  46.1788553  87.5325993  10.0561673
  35.3898553  79.0655993   4.6021673  35.8298553  78.9625993   3.8561673
  35.9348553  78.7525993   5.2071673  35.5348553  79.0045993   4.5811673
  43.4058553  78.1675993  10.1941673  42.7578553  78.6375993  10.5421673
  43.9708553  78.0785993  10.8531673  43.3938553  78.2235993  10.3431673
  43.0938553  79.7045993   6.4921673  43.3958553  80.1245993   7.1951673
  43.1298553  78.8645993   6.7241673  43.1438553  79.6425993   6.6301673
  38.9368553  74.0505993   4.6491673  38.1108553  73.9015993   4.8861673
  38.8968553  74.0855993   3.7781673  38.8088553  74.0335993   4.5551673
  40.5778553  85.0905993   9.4371673  39.7828553  85.0265993   9.7881673
  40.6488553  85.9375993   9.2421673  40.4708553  85.2055993   9.4601673
  31.5018553  74.4485993  10.6841673  31.3618553  75.2435993  10.3531673
  30.7158553  74.2055993  10.9731673  31.3648553  74.5305993  10.6781673
  41.0668553  87.7375993   8.5451673  41.7538553  87.6235993   9.0701673
  41.2008553  88.5285993   8.2011673  41.1878553  87.8375993   8.5721673
  49.2428553  80.3465993  10.3561673  48.3878553  80.2245993  10.4821673
  49.3958553  79.9515993   9.5931673  49.1388553  80.2695993  10.2621673
  43.7558553  81.0115993   8.9321673  43.5008553  80.2925993   9.3541673
  44.5768553  81.1275993   9.2021673  43.8398553  80.9225993   9.0341673
  41.6898553  82.2015993  12.1191673  42.0128553  82.8875993  11.6871673
  40.9858553  82.5245993  12.5211673  41.6328553  82.3505993  12.1141673
  41.4748553  85.6655993   5.9781673  40.7808553  86.0675993   6.3211673
  42.1518553  86.0985993   6.3171673  41.4718553  85.7885993   6.0791673
  46.8518553  88.2585993  12.5581673  47.6278553  87.8685993  12.6411673
  46.3828553  87.9225993  13.2131673  46.8968553  88.1515993  12.6671673
  34.5428553  79.2035993   8.3251673  34.9178553  79.8225993   7.8381673
  35.2168553  78.7295993   8.6101673  34.6978553  79.2255993   8.2951673
  32.3178553  77.6515993   7.6001673  32.3948553  77.4825993   6.7471673
  33.0638553  78.0575993   7.7971673  32.4388553  77.6865993   7.5031673
  34.8718553  75.0615993  10.0111673  34.7908553  74.2175993  10.2171673
  34.5578553  75.1055993   9.1981673  34.8138553  74.9435993   9.9211673
  46.9788553  80.4375993   7.3961673  46.9768553  79.5745993   7.5201673
  47.0458553  80.7615993   8.2031673  46.9888553  80.3575993   7.5331673
  31.7148553  82.8775993   7.8241673  32.0348553  83.0965993   7.0431673
  31.6148553  82.0125993   7.7691673  31.7468553  82.7825993   7.7011673
  42.8578553  75.2375993  11.1781673  42.9498553  75.9495993  11.6721673
  42.2208553  74.7925993  11.5751673  42.7768553  75.2765993  11.3101673
  45.4498553  75.9435993   4.8321673  46.3048553  76.0425993   4.9771673
  45.0808553  76.4965993   5.3971673  45.5218553  76.0405993   4.9371673
  36.4778553  82.1695993   9.2091673  36.0818553  82.9435993   9.2841673
  36.0718553  81.7965993   8.5331673  36.3598553  82.2285993   9.1201673
  45.7538553  81.2235993   3.3231673  46.4198553  81.7645993   3.4831673
  45.4088553  81.5345993   2.5841673  45.8008553  81.3495993   3.2381673
  36.9068553  75.1465993   6.6591673  36.0428553  75.2305993   6.7391673
  37.1268553  74.6325993   7.3281673  36.8118553  75.0835993   6.7701673
  48.9248553  73.7815993   7.9881673  48.8728553  73.7375993   8.8581673
  49.6118553  73.2785993   7.7981673  49.0188553  73.7015993   8.0881673
  41.0098553  75.8945993   5.0331673  40.2728553  75.4405993   5.1461673
  41.5808553  75.4925993   5.5561673  40.9848553  75.7675993   5.1271673
  43.7418553  86.7425993   6.8211673  43.9478553  87.0435993   7.6131673
  43.6808553  87.4645993   6.3361673  43.7628553  86.8935993   6.8661673
  38.5128553  80.2235993  10.2371673  38.1908553  79.6475993   9.6671673
  38.1538553  80.9785993   9.9911673  38.4128553  80.2495993  10.1171673
  48.5538553  85.3815993   6.2791673  48.5218553  84.5195993   6.1441673
  47.8608553  85.6835993   5.8451673  48.4468553  85.2985993   6.1951673
  46.6588553  88.6415993   5.0761673  47.1858553  88.5585993   4.3851673
  46.2678553  87.8635993   5.1301673  46.6788553  88.5145993   4.9821673
  34.1268553  75.2295993   7.3071673  33.7838553  74.4625993   7.0731673
  33.4318553  75.7535993   7.3711673  33.9738553  75.1935993   7.2821673
  43.1728553  74.0855993   4.2841673  43.8428553  74.6295993   4.4111673
  42.6698553  74.5095993   3.7111673  43.1978553  74.2285993   4.2181673
  42.5318553  79.8935993   1.7771673  43.0828553  79.2865993   2.0771673
  42.1068553  80.1565993   2.4921673  42.5508553  79.8425993   1.9261673
  32.4678553  86.9515993   8.7741673  31.8938553  87.3675993   9.2831673
  33.2008553  87.4165993   8.8691673  32.4918553  87.0815993   8.8631673
  47.7758553  83.0975993  11.4901673  48.4098553  82.9275993  12.0641673
  48.1928553  83.5005993  10.8381673  47.9308553  83.1325993  11.4791673
  48.4008553  77.6615993  12.2281673  48.2048553  78.3055993  12.7831673
  47.6788553  77.1715993  12.2201673  48.2658553  77.6845993  12.3091673
  48.2998553  78.6025993   5.1991673  47.4668553  78.8525993   5.1271673
  48.2438553  77.7625993   5.4281673  48.1688553  78.5155993   5.2221673
  37.5598553  75.5905993  10.3931673  37.7938553  75.0145993   9.7801673
  36.7178553  75.4095993  10.5341673  37.4698553  75.4785993  10.3231673
  45.1868553  83.2085993  12.8451673  46.0578553  83.1725993  12.8091673
  44.9678553  83.6285993  12.1131673  45.2838553  83.2645993  12.7321673
  41.9508553  55.3154913  75.7791313  41.7058553  55.8034913  75.0991313
  42.8138553  55.2424913  75.6791313  42.0418553  55.3764913  75.6641313
  41.7598553  62.2314913  80.4501313  41.2358553  62.8274913  80.8131313
  42.1568553  61.8634913  81.1341313  41.7408553  62.2654913  80.6051313
  31.6288553  66.3714913  75.9061313  31.1878553  66.4894913  76.6491313
  31.3458553  65.5964913  75.6211313  31.5218553  66.2744913  75.9741313
  47.9038553  69.6724913  73.4211313  48.6048553  69.1534913  73.4171313
  47.3168553  69.2274913  72.9521313  47.9208553  69.5294913  73.3511313
  31.3718553  60.1634913  72.4131313  30.5938553  60.3254913  72.0531313
  31.4108553  59.2924913  72.4351313  31.2628553  60.0584913  72.3631313
  34.5108553  65.4264913  71.0851313  34.1188553  65.0554913  70.3991313
  34.4308553  64.8284913  71.7141313  34.4408553  65.2834913  71.0761313
  44.4308553  63.2984913  77.1261313  44.5108553  63.3024913  76.2571313
  43.8468553  62.6664913  77.2751313  44.3558553  63.2054913  77.0201313
  34.1378553  67.0674913  74.9851313  34.7458553  66.8974913  75.5881313
  33.3868553  66.9274913  75.4061313  34.1168553  67.0214913  75.1361313
  38.4198553  56.4024913  74.9341313  38.3498553  57.0794913  74.3881313
  39.1608553  56.0144913  74.6851313  38.5188553  56.4454913  74.8161313
  33.0288553  70.1584913  71.0621313  33.4958553  70.2424913  70.3301313
  33.4838553  69.5804913  71.5311313  33.1648553  70.0854913  71.0231313
  33.0148553  63.6274913  76.3631313  32.5528553  63.2354913  75.7361313
  33.7148553  63.1144913  76.4551313  33.0498553  63.4944913  76.2841313
  35.0158553  61.7274913  76.3861313  35.8328553  61.5404913  76.6291313
  34.5388553  61.1134913  76.7821313  35.0658553  61.6094913  76.4811313
  39.2198553  67.7084913  78.9961313  39.5678553  66.9094913  79.0261313
  39.8848553  68.2124913  78.7411313  39.3698553  67.6644913  78.9631313
  39.2768553  67.1574913  75.2071313  39.6078553  66.5134913  75.6931313
  39.5168553  66.9464913  74.3961313  39.3608553  67.0314913  75.1591313
  35.6128553  56.8214913  75.6521313  35.3168553  57.3224913  75.0021313
  36.4798553  56.8994913  75.5951313  35.6968553  56.9074913  75.5481313
  38.5918553  55.9634913  77.8751313  38.6648553  56.8234913  78.0041313
  38.5538553  55.8884913  77.0071313  38.5968553  56.0794913  77.7661313
  43.2648553  58.8894913  70.1741313  42.8148553  59.5704913  70.4811313
  43.3788553  58.3854913  70.8771313  43.2158553  58.9154913  70.3231313
  31.4708553  61.3884913  79.3761313  31.2148553  62.2194913  79.3011313
  30.8068553  61.0054913  79.7931313  31.3348553  61.4544913  79.4271313
  31.3808553  71.0984913  77.2761313  30.7888553  71.6564913  76.9631313
  31.8068553  70.8294913  76.5641313  31.3568553  71.1404913  77.1251313
  37.2208553  68.9424913  74.7561313  36.6418553  68.6674913  75.3481313
  37.8448553  68.3334913  74.7811313  37.2278553  68.8124913  74.8471313
  43.3638553  71.2304913  72.2781313  44.0908553  71.7024913  72.3801313
  43.5928553  70.4364913  72.5581313  43.5058553  71.1834913  72.3351313
  41.5318553  71.6224913  74.2681313  41.7458553  72.1494913  74.9301313
  42.2988553  71.4484913  73.8891313  41.6768553  71.6744913  74.3101313
  34.4998553  56.2054913  79.8671313  33.9788553  55.5774913  79.5591313
  35.0908553  55.7684913  80.3381313  34.5108553  56.0474913  79.8911313
  32.9258553  69.7684913  75.2071313  33.5818553  69.1934913  75.2221313
  33.3148553  70.5174913  74.9861313  33.0808553  69.7934913  75.1771313
  48.6588553  58.8624913  76.4691313  48.3128553  59.5404913  76.8951313
  48.0228553  58.2644913  76.4851313  48.5138553  58.8744913  76.5341313
  33.7438553  68.2554913  78.7071313  34.1668553  67.8994913  78.0331313
  34.0678553  67.8334913  79.3991313  33.8538553  68.1404913  78.7101313
  36.9748553  71.1074913  78.0031313  37.8188553  71.2114913  77.8081313
  36.6778553  71.9254913  78.0711313  37.0558553  71.2434913  77.9841313
  40.7818553  60.5044913  76.0901313  41.0688553  60.2724913  75.3001313
  41.5138553  60.5834913  76.5591313  40.9318553  60.4814913  76.0431313
  41.5038553  60.8434913  71.2111313  41.7848553  61.6314913  71.4601313
  40.7278553  61.0084913  70.8481313  41.4308553  60.9844913  71.1941313
  45.5448553  72.8174913  72.6781313  46.2098553  72.6694913  72.1331313
  45.9048553  72.7344913  73.4681313  45.6968553  72.7834913  72.7141313
  40.3628553  69.0144913  71.0271313  40.1818553  69.5594913  71.6841313
  41.1288553  69.3044913  70.7261313  40.4488553  69.1384913  71.0801313
  43.8698553  56.9104913  72.0811313  44.4098553  56.2284913  72.1571313
  43.9318553  57.3084913  72.8551313  43.9588553  56.8684913  72.2071313
  31.8238553  58.0784913  74.6501313  31.7098553  57.2144913  74.6811313
  31.3488553  58.3724913  75.3201313  31.7368553  57.9944913  74.7531313
  41.1278553  59.2864913  73.3951313  40.6198553  58.6244913  73.1411313
  41.1798553  59.7904913  72.6851313  41.0608553  59.2634913  73.2531313
  41.1278553  56.2274913  73.2861313  40.6728553  55.8254913  72.6601313
  41.9008553  56.3824913  72.9111313  41.1748553  56.1914913  73.1381313
  47.9538553  72.5844913  76.6761313  47.4988553  73.3014913  76.8771313
  47.3398553  72.0134913  76.4341313  47.7958553  72.6064913  76.6701313
  39.7258553  58.5944913  77.8081313  39.7998553  59.1624913  77.1501313
  39.8468553  59.0864913  78.5181313  39.7538553  58.7514913  77.8161313
  44.9508553  68.4294913  76.2201313  45.6518553  67.9474913  76.4091313
  44.2908553  67.8604913  76.2651313  44.9568553  68.2744913  76.2541313
  34.3338553  54.4174913  76.1561313  34.8698553  55.1054913  76.1461313
  34.3368553  54.1434913  75.3281313  34.4128553  54.4784913  76.0321313
  37.2898553  64.8504913  80.1811313  37.4618553  64.6404913  81.0101313
  36.6348553  64.3164913  79.9651313  37.2188553  64.7404913  80.2721313
  44.7738553  54.7084913  76.5321313  44.8228553  54.3904913  77.3431313
  45.0968553  54.0644913  76.0391313  44.8288553  54.5664913  76.5791313
  34.7818553  58.2274913  77.8101313  35.0538553  57.7974913  77.1021313
  34.6058553  57.5914913  78.3811313  34.7958553  58.0704913  77.7901313
  47.4698553  65.9224913  72.0281313  47.5888553  65.6354913  72.8431313
  48.2768553  65.9434913  71.6981313  47.6058553  65.8834913  72.1001313
  34.6058553  65.6544913  77.3591313  35.4568553  65.5744913  77.1861313
  34.2488553  64.9724913  76.9471313  34.6788553  65.5414913  77.2721313
  33.3728553  72.3794913  78.5961313  32.6998553  71.8814913  78.3511313
  33.7758553  72.5644913  77.8451313  33.3328553  72.3334913  78.4491313
  32.9228553  59.3294913  80.8921313  33.7658553  59.5494913  80.8491313
  32.5338553  59.9024913  80.3611313  32.9898553  59.4464913  80.8071313
  45.3648553  62.4594913  71.6131313  45.1448553  63.1904913  71.1911313
  44.9168553  62.5104913  72.3601313  45.2658553  62.5744913  71.6611313
  36.9738553  65.6614913  75.5941313  37.6868553  66.1564913  75.6841313
  37.1958553  65.0944913  74.9681313  37.1118553  65.6504913  75.5151313
  49.5518553  57.3204913  71.0661313  48.8898553  56.7524913  71.0891313
  49.3588553  57.8324913  70.3861313  49.4258553  57.3124913  70.9691313
  31.1298553  67.3044913  78.9141313  30.4628553  67.7924913  79.1901313
  31.8098553  67.8494913  78.9431313  31.1318553  67.4564913  78.9591313
  31.1958553  63.9884913  74.0171313  31.0108553  63.1494913  74.1691313
  31.8548553  63.9524913  73.4471313  31.2658553  63.8594913  73.9551313
  47.5538553  56.8784913  73.3451313  48.2998553  56.4714913  73.5441313
  47.8168553  57.5934913  72.9201313  47.7028553  56.9244913  73.3121313
  41.4968553  69.3644913  77.9211313  40.9738553  69.9984913  77.6281313
  41.8068553  69.0004913  77.1921313  41.4648553  69.4044913  77.7701313
  31.3678553  68.1524913  73.5921313  31.9198553  68.7214913  73.9561313
  31.1358553  67.6374913  74.2571313  31.4148553  68.1604913  73.7441313
  35.5718553  67.1524913  80.6811313  36.0388553  67.4414913  81.3591313
  36.1438553  66.6744913  80.2271313  35.7258553  67.1244913  80.7141313
  44.0078553  59.1664913  78.4181313  44.3518553  59.3184913  79.2051313
  43.5548553  58.4284913  78.5311313  43.9918553  59.0794913  78.5511313
  31.1978553  66.6014913  71.2201313  31.9538553  66.1694913  71.2781313
  31.2128553  67.1334913  71.9111313  31.3118553  66.6164913  71.3311313
  32.1378553  64.8224913  79.2251313  32.5688553  64.6934913  78.4781313
  31.9328553  65.6704913  79.1991313  32.1708553  64.9284913  79.1111313
  38.4838553  58.3864913  72.8751313  38.4818553  58.2694913  72.0101313
  38.3028553  59.2344913  72.9671313  38.4568553  58.4944913  72.7611313
  36.2218553  68.3384913  77.5071313  36.3478553  69.1814913  77.6941313
  36.8898553  67.9394913  77.9031313  36.3398553  68.4044913  77.5931313
  34.8368553  61.2184913  72.5091313  34.7088553  60.7704913  73.2471313
  34.2548553  60.8764913  71.9571313  34.7318553  61.1014913  72.5371313
  35.0038553  63.0484913  79.1081313  34.2228553  62.9894913  78.7251313
  35.0758553  62.2964913  79.5451313  34.8988553  62.9294913  79.1161313
  45.3288553  60.4984913  80.9721313  44.6668553  60.8264913  81.4351313
  45.5158553  61.1324913  80.4031313  45.2588553  60.6404913  80.9561313
  43.5218553  58.4674913  74.4831313  44.0118553  59.1844913  74.4061313
  42.7318553  58.7284913  74.2201313  43.4778553  58.6114913  74.4331313
  40.1038553  59.9374913  80.2081313  40.5838553  60.6364913  80.4161313
  40.4768553  59.2904913  80.6591313  40.2298553  59.9454913  80.3051313
  42.2928553  63.1064913  72.4821313  42.2848553  63.8284913  71.9921313
  41.6538553  63.2414913  73.0591313  42.1978553  63.2334913  72.4951313
  47.2648553  66.9764913  76.4631313  47.6208553  66.6264913  77.1781313
  47.2568553  66.3154913  75.8931313  47.3168553  66.8264913  76.4841313
  43.3098553  70.0424913  80.3071313  42.7068553  69.7464913  79.7501313
  43.8548553  70.4944913  79.7981313  43.3008553  70.0654913  80.1491313
  43.3228553  66.8934913  79.7071313  42.5258553  67.1174913  79.9811313
  43.5808553  66.2994913  80.2921313  43.2428553  66.8384913  79.8341313
  37.2148553  71.7054913  74.1551313  37.0678553  70.9294913  74.5261313
  37.9038553  71.5584913  73.6401313  37.2948553  71.5684913  74.1341313
  36.8858553  55.4484913  72.1431313  36.9828553  55.3414913  73.0041313
  36.1778553  55.9544913  72.0781313  36.7958553  55.5074913  72.2611313
  39.5068553  71.2214913  72.5571313  40.1288553  71.3844913  73.1471313
  39.5428553  71.9124913  72.0251313  39.6038553  71.3474913  72.5661313
  34.0078553  63.7554913  73.3861313  34.3318553  62.9764913  73.1641313
  34.6538553  64.1234913  73.8411313  34.1508553  63.6944913  73.4201313
  31.0048553  55.4164913  74.3541313  31.1338553  54.7084913  73.8621313
  30.6378553  55.0984913  75.0791313  30.9698553  55.2644913  74.3891313
  40.6978553  63.0974913  74.8111313  40.7568553  63.7474913  75.3901313
  40.5088553  62.4014913  75.3021313  40.6788553  63.0904913  74.9691313
  45.9238553  67.4264913  80.6801313  45.4448553  67.7244913  80.0141313
  45.5678553  66.6504913  80.8581313  45.8008553  67.3554913  80.6081313
  35.1938553  57.6144913  71.3231313  34.6828553  57.6674913  70.6171313
  35.9778553  57.8544913  71.0271313  35.2338553  57.6574913  71.1751313
  39.9208553  65.1444913  79.2421313  39.0738553  64.9504913  79.3231313
  40.2448553  64.9794913  80.0351313  39.8428553  65.0914913  79.3711313
  36.6728553  71.8744913  70.1281313  37.1118553  71.1774913  70.4161313
  36.8798553  72.4984913  70.7011313  36.7688553  71.8634913  70.2551313
  33.7688553  64.8374913  81.5581313  34.4908553  65.3254913  81.5211313
  33.4988553  64.8074913  80.7291313  33.8358553  64.9054913  81.4301313
  36.9988553  60.0084913  78.2931313  37.8448553  59.8184913  78.3911313
  36.6288553  59.2314913  78.1551313  37.0688553  59.8654913  78.2871313
  49.6158553  71.5924913  72.6201313  50.3098553  71.1254913  72.3721313
  49.0768553  70.9944913  72.9571313  49.6388553  71.4344913  72.6331313
  31.8198553  61.3464913  74.9481313  32.3088553  61.0544913  75.6091313
  31.9488553  60.7534913  74.3211313  31.9108553  61.2154913  74.9531313
  36.3448553  62.7804913  70.4341313  35.7348553  62.3754913  70.9081313
  35.9588553  62.8984913  69.6611313  36.1978553  62.7374913  70.3901313
  48.1108553  64.4394913  79.2361313  47.8248553  64.8404913  79.9561313
  48.9708553  64.3774913  79.3631313  48.1958553  64.4894913  79.3611313
  37.7998553  61.2414913  73.1441313  38.0718553  62.0674913  73.2111313
  36.9368553  61.3164913  73.0481313  37.7128553  61.3744913  73.1391313
  31.2798553  57.2114913  79.6801313  31.3238553  57.5554913  78.8791313
  32.0348553  57.4484913  80.0471313  31.3978553  57.2974913  79.6161313
  49.2418553  70.0724913  79.7651313  49.5318553  70.3294913  78.9841313
  49.9368553  70.1684913  80.2841313  49.3878553  70.1244913  79.7261313
  45.8468553  68.6754913  71.7471313  46.1808553  67.8694913  71.7821313
  45.0918553  68.6034913  72.1771313  45.7848553  68.5454913  71.8161313
  46.3288553  60.5094913  77.4061313  45.5838553  60.1864913  77.7241313
  46.3308553  61.3354913  77.6861313  46.2188553  60.5834913  77.4941313
  43.2208553  66.5504913  71.1501313  43.9048553  66.0364913  70.9811313
  42.8038553  66.5964913  70.3851313  43.2598553  66.4814913  71.0121313
  39.6828553  71.5164913  77.1731313  40.2288553  72.1954913  77.2271313
  39.3328553  71.5984913  76.3781313  39.7118553  71.6294913  77.0631313
  37.8658553  69.7444913  80.5621313  37.2418553  70.3264913  80.3801313
  38.1138553  69.4584913  79.7761313  37.8098553  69.7884913  80.4191313
  47.9468553  61.0744913  71.3941313  48.3248553  61.7514913  70.9941313
  47.1048553  61.2984913  71.4251313  47.8778553  61.2074913  71.3391313
  39.4598553  64.5204913  70.4771313  38.6548553  64.3434913  70.1921313
  39.4268553  65.3714913  70.6691313  39.3358553  64.6194913  70.4641313
  35.3898553  60.5874913  80.6271313  35.8298553  60.4844913  79.8811313
  35.9348553  60.2744913  81.2321313  35.5348553  60.5264913  80.6061313
  45.6418553  60.6734913  74.7691313  45.8488553  60.4724913  75.5931313
  46.3978553  60.9414913  74.4271313  45.7838553  60.6834913  74.8401313
  38.9368553  55.5724913  80.6741313  38.1108553  55.4234913  80.9111313
  38.8968553  55.6074913  79.8031313  38.8088553  55.5554913  80.5801313
  46.6638553  56.7564913  76.2431313  45.9498553  56.2854913  76.4141313
  46.5018553  57.0974913  75.4571313  46.5348553  56.7374913  76.1521313
  47.1068553  64.7004913  74.6231313  47.5828553  63.9714913  74.5751313
  46.2858553  64.4144913  74.5471313  47.0558553  64.5504913  74.6041313
  34.5658553  58.7144913  73.9341313  34.6918553  58.3854913  73.1361313
  33.7538553  58.4654913  74.1331313  34.4648553  58.6294913  73.8461313
  43.3228553  65.8674913  76.9781313  43.3988553  66.2084913  77.7771313
  43.4918553  65.0204913  77.0991313  43.3588553  65.7924913  77.1141313
  40.8448553  65.1414913  76.5431313  40.5468553  64.8264913  77.3001313
  41.5398553  65.6144913  76.7781313  40.9038553  65.1644913  76.6901313
  44.7738553  72.0974913  79.0731313  44.3228553  72.7404913  79.4521313
  45.4818553  72.0184913  79.5781313  44.8118553  72.1804913  79.2041313
  47.8768553  61.8134913  74.0651313  47.9798553  61.7554913  73.2011313
  48.6178553  61.4814913  74.3831313  48.0018553  61.7564913  73.9841313
  41.7968553  68.7784913  75.1721313  41.5918553  69.6114913  75.0131313
  41.0218553  68.3964913  75.2941313  41.6518553  68.8454913  75.1671313
  33.1708553  60.3354913  70.4671313  32.4988553  60.3494913  71.0231313
  33.2658553  59.4874913  70.2831313  33.0858553  60.2124913  70.5221313
  41.8518553  56.9494913  78.0571313  41.1518553  57.4674913  78.0011313
  41.8898553  56.5694913  77.2731313  41.7538553  56.9704913  77.9331313
  37.1588553  69.0404913  71.5811313  37.5998553  69.1204913  72.3291313
  36.3538553  68.8244913  71.8391313  37.1048553  69.0204913  71.7301313
  45.4498553  57.4654913  80.8571313  46.3048553  57.5644913  81.0021313
  45.0808553  58.0184913  81.4221313  45.5218553  57.5624913  80.9621313
  45.7538553  62.7454913  79.3481313  46.4198553  63.2864913  79.5081313
  45.4088553  63.0564913  78.6091313  45.8008553  62.8714913  79.2631313
  46.0668553  70.8114913  75.1551313  45.8928553  70.1574913  75.7051313
  46.7798553  70.5404913  74.7321313  46.1468553  70.6744913  75.1741313
  34.4878553  68.1104913  72.1821313  34.2438553  67.8034913  72.9621313
  34.4548553  67.4074913  71.6661313  34.4468553  67.9614913  72.2211313
  37.3068553  66.3554913  70.9251313  36.4888553  66.0874913  71.0651313
  37.2788553  67.2074913  71.1101313  37.1818553  66.4424913  70.9731313
  41.0098553  57.4164913  81.0581313  40.2728553  56.9624913  81.1711313
  41.5808553  57.0144913  81.5811313  40.9848553  57.2894913  81.1521313
  39.3088553  54.9974913  70.8891313  39.3868553  55.2444913  70.0561313
  38.5658553  55.3744913  71.1471313  39.2108553  55.0894913  70.8041313
  46.6588553  70.1634913  81.1011313  47.1858553  70.0804913  80.4101313
  46.2678553  69.3854913  81.1551313  46.6788553  70.0364913  81.0071313
  43.1728553  55.6074913  80.3091313  43.8428553  56.1514913  80.4361313
  42.6698553  56.0314913  79.7361313  43.1978553  55.7504913  80.2431313
  42.5318553  61.4154913  77.8021313  43.0828553  60.8084913  78.1021313
  42.1068553  61.6784913  78.5171313  42.5508553  61.3644913  77.9511313
  32.7798553  60.0654913  77.2881313  32.4118553  60.3674913  78.0191313
  33.3138553  59.4364913  77.5721313  32.8038553  60.0174913  77.4381313
  44.5018553  63.2464913  74.3641313  44.5698553  62.3964913  74.5451313
  43.6788553  63.3324913  74.0861313  44.3898553  63.1334913  74.3501313
  34.2538553  71.7404913  73.5741313  34.1088553  71.8964913  72.7281313
  35.1198553  71.8194913  73.6521313  34.3608553  71.7754913  73.4611313
  38.4208553  64.1374913  73.3021313  38.5208553  64.2764913  72.4471313
  39.2388553  64.0774913  73.5981313  38.5558553  64.1484913  73.2191313
  47.5808553  72.2014913  70.7821313  48.2178553  72.0674913  71.3631313
  47.2398553  71.4074913  70.6651313  47.6248553  72.0644913  70.8501313
  43.6558553  68.4664913  73.1041313  43.4048553  68.3384913  73.9301313
  43.3388553  67.7714913  72.6831313  43.5718553  68.3454913  73.1641313
  48.2998553  60.1244913  81.2241313  47.4668553  60.3744913  81.1521313
  48.2438553  59.2844913  81.4531313  48.1688553  60.0374913  81.2471313
  34.9408553  70.5554913  80.0511313  34.8618553  69.7454913  79.7351313
  34.4968553  71.0424913  79.4791313  34.8638553  70.5074913  79.9201313
  40.5418553  66.6744913  72.5341313  41.2588553  66.3274913  72.1781313
  40.5078553  67.4744913  72.1861313  40.6428553  66.7414913  72.4301313
  44.4308553  63.2984913  58.1198903  44.5108553  63.3024913  57.2508903
  43.8468553  62.6664913  58.2688903  44.3558553  63.2054913  58.0138903
  31.5688553  69.1064913  63.1548903  31.6978553  68.8264913  63.9708903
  30.9588553  68.5654913  62.8458903  31.4978553  68.9854913  63.2298903
  38.1428553  66.6314913  68.2218903  37.9068553  66.6284913  69.0618903
  37.3948553  66.4834913  67.7978903  37.9968553  66.6084913  68.2828903
  38.1248553  69.8234913  65.4848903  38.2628553  70.5834913  65.0778903
  38.9158553  69.4584913  65.5118903  38.2618553  69.8824913  65.4288903
  39.2198553  67.7084913  59.9898903  39.5678553  66.9094913  60.0198903
  39.8848553  68.2124913  59.7348903  39.3698553  67.6644913  59.9568903
  41.2448553  61.2884913  67.5398903  40.3968553  61.1894913  67.3618903
  41.2738553  62.0334913  67.9938903  41.1238553  61.3844913  67.5808903
  45.8028553  54.2484913  66.6538903  45.6448553  55.0174913  66.2718903
  45.0308553  54.0284913  66.9978903  45.6648553  54.3294913  66.6488903
  31.4708553  61.3884913  60.3698903  31.2148553  62.2194913  60.2948903
  30.8068553  61.0054913  60.7868903  31.3348553  61.4544913  60.4208903
  31.3808553  71.0984913  58.2698903  30.7888553  71.6564913  57.9568903
  31.8068553  70.8294913  57.5578903  31.3568553  71.1404913  58.1188903
  43.3638553  71.2304913  53.2718903  44.0908553  71.7024913  53.3738903
  43.5928553  70.4364913  53.5518903  43.5058553  71.1834913  53.3288903
  41.5318553  71.6224913  55.2618903  41.7458553  72.1494913  55.9238903
  42.2988553  71.4484913  54.8828903  41.6768553  71.6744913  55.3038903
  37.8058553  58.3384913  70.1588903  37.9228553  57.8844913  69.4228903
  38.0938553  59.1364913  69.9558903  37.8658553  58.3894913  70.0198903
  32.9258553  69.7684913  56.2008903  33.5818553  69.1934913  56.2158903
  33.3148553  70.5174913  55.9798903  33.0808553  69.7934913  56.1708903
  43.9708553  71.6324913  63.5668903  44.7148553  72.0884913  63.5568903
  43.8498553  71.4184913  62.7298903  44.0628553  71.6684913  63.4418903
  33.5388553  57.9354913  69.1428903  32.7608553  57.5454913  69.0708903
  34.0298553  57.5234913  68.5518903  33.4958553  57.8164913  69.0448903
  33.7438553  68.2554913  59.7008903  34.1668553  67.8994913  59.0268903
  34.0678553  67.8334913  60.3928903  33.8538553  68.1404913  59.7038903
  36.9748553  71.1074913  58.9968903  37.8188553  71.2114913  58.8018903
  36.6778553  71.9254913  59.0648903  37.0558553  71.2434913  58.9778903
  40.1878553  55.5784913  68.3108903  40.3658553  54.7694913  68.0358903
  40.0448553  56.0194913  67.5718903  40.1928553  55.5244913  68.1608903
  45.5448553  72.8174913  53.6718903  46.2098553  72.6694913  53.1268903
  45.9048553  72.7344913  54.4618903  45.6968553  72.7834913  53.7078903
  35.9728553  72.3264913  64.7368903  36.2648553  72.2594913  65.5568903
  35.3468553  71.7214913  64.6918903  35.9238553  72.2274913  64.8518903
  30.8868553  58.4834913  66.7288903  30.8828553  59.0704913  67.3748903
  31.4808553  58.7954913  66.1718903  30.9738553  58.6164913  66.7418903
  43.2248553  68.8174913  67.2708903  43.1908553  69.1994913  68.0548903
  44.0788553  68.7754913  67.0998903  43.3458553  68.8674913  67.3618903
  33.9658553  70.4884913  63.8588903  33.2678553  69.9804913  63.9848903
  34.2258553  70.2834913  63.0508903  33.9008553  70.3834913  63.7578903
  41.6768553  71.9814913  64.7688903  42.4448553  71.9014913  64.3628903
  41.0938553  71.8604913  64.1308903  41.7038553  71.9514913  64.6148903
  47.9538553  72.5844913  57.6698903  47.4988553  73.3014913  57.8708903
  47.3398553  72.0134913  57.4278903  47.7958553  72.6064913  57.6638903
  44.9508553  68.4294913  57.2138903  45.6518553  67.9474913  57.4028903
  44.2908553  67.8604913  57.2588903  44.9568553  68.2744913  57.2478903
  35.3268553  69.3394913  66.4258903  36.1678553  69.4024913  66.2038903
  35.2898553  69.7364913  67.2018903  35.4458553  69.4074913  66.5078903
  37.2898553  64.8504913  61.1748903  37.4618553  64.6404913  62.0038903
  36.6348553  64.3164913  60.9588903  37.2188553  64.7404913  61.2658903
  38.0398553  64.7884913  63.7648903  38.0928553  65.6354913  63.9668903
  37.7548553  64.4184913  64.5018903  38.0058553  64.8584913  63.9028903
  44.2168553  65.4834913  62.8948903  43.7028553  65.0714913  63.4658903
  44.0908553  66.3274913  63.0758903  44.1228553  65.5474913  63.0058903
  30.8608553  69.1594913  69.9758903  31.6168553  69.5084913  70.2338903
  31.0378553  68.3064913  69.9188903  30.9988553  69.0844913  70.0058903
  47.2378553  58.9444913  65.8338903  48.0098553  58.7194913  66.1708903
  46.7628553  59.1614913  66.5338903  47.2818553  58.9434913  65.9868903
  34.6058553  65.6544913  58.3528903  35.4568553  65.5744913  58.1798903
  34.2488553  64.9724913  57.9408903  34.6788553  65.5414913  58.2658903
  33.3728553  72.3794913  59.5898903  32.6998553  71.8814913  59.3448903
  33.7758553  72.5644913  58.8388903  33.3328553  72.3334913  59.4428903
  49.7038553  70.4314913  67.2758903  49.0218553  70.7414913  66.8288903
  49.3348553  69.9734913  67.9208903  49.5478553  70.4094913  67.3048903
  36.9738553  65.6614913  56.5878903  37.6868553  66.1564913  56.6778903
  37.1958553  65.0944913  55.9618903  37.1118553  65.6504913  56.5088903
  31.1298553  67.3044913  59.9078903  30.4628553  67.7924913  60.1838903
  31.8098553  67.8494913  59.9368903  31.1318553  67.4564913  59.9528903
  38.7768553  61.0144913  70.0038903  38.2928553  61.5914913  70.4458903
  38.7488553  61.3094913  69.1828903  38.7008553  61.1434913  69.9478903
  49.8748553  61.6984913  64.6158903  50.0898553  60.8984913  64.3398903
  49.0248553  61.7584913  64.4268903  49.7808553  61.5894913  64.5468903
  41.4968553  69.3644913  58.9148903  40.9738553  69.9984913  58.6218903
  41.8068553  69.0004913  58.1858903  41.4648553  69.4044913  58.7638903
  35.5718553  67.1524913  61.6748903  36.0388553  67.4414913  62.3528903
  36.1438553  66.6744913  61.2208903  35.7258553  67.1244913  61.7078903
  32.1378553  64.8224913  60.2188903  32.5688553  64.6934913  59.4718903
  31.9328553  65.6704913  60.1928903  32.1708553  64.9284913  60.1048903
  47.5378553  70.8134913  65.3658903  46.8668553  71.3274913  65.5838903
  47.6008553  70.9134913  64.5018903  47.4478553  70.9044913  65.2708903
  36.2218553  68.3384913  58.5008903  36.3478553  69.1814913  58.6878903
  36.8898553  67.9394913  58.8968903  36.3398553  68.4044913  58.5868903
  34.3518553  61.8214913  68.3628903  33.8158553  61.3154913  68.8308903
  34.3718553  61.4314913  67.5828903  34.2748553  61.6884913  68.3168903
  35.0038553  63.0484913  60.1018903  34.2228553  62.9894913  59.7188903
  35.0758553  62.2964913  60.5388903  34.8988553  62.9294913  60.1098903
  35.4338553  62.7854913  63.5698903  35.4588553  62.1104913  63.0188903
  34.7878553  63.2814913  63.2578903  35.3428553  62.7584913  63.4428903
  39.5338553  71.5624913  62.9618903  39.2568553  70.9214913  62.4388903
  39.3258553  72.2884913  62.5238903  39.4628553  71.5754913  62.8198903
  33.2328553  64.1404913  69.1288903  33.1958553  64.6414913  68.4148903
  33.5638553  63.3884913  68.8338903  33.2758553  64.1024913  68.9798903
  44.8358553  66.3454913  67.3868903  45.3198553  67.0634913  67.4848903
  45.2298553  65.9184913  66.7358903  44.9658553  66.3884913  67.3048903
  39.1318553  69.1904913  68.5638903  39.4858553  69.0124913  69.3408903
  38.6958553  68.4614913  68.3648903  39.1198553  69.0564913  68.6498903
  47.2648553  66.9764913  57.4568903  47.6208553  66.6264913  58.1718903
  47.2568553  66.3154913  56.8868903  47.3168553  66.8264913  57.4778903
  43.3098553  70.0424913  61.3008903  42.7068553  69.7464913  60.7438903
  43.8548553  70.4944913  60.7918903  43.3008553  70.0654913  61.1428903
  43.3228553  66.8934913  60.7008903  42.5258553  67.1174913  60.9748903
  43.5808553  66.2994913  61.2858903  43.2428553  66.8384913  60.8278903
  46.5828553  64.8914913  65.5468903  46.6378553  65.0164913  64.6848903
  47.3358553  65.2114913  65.8488903  46.7018553  64.9564913  65.4638903
  42.7738553  70.2404913  69.8238903  42.9378553  70.5234913  70.6328903
  43.0368553  70.9014913  69.3188903  42.8368553  70.3804913  69.8688903
  47.6148553  55.1894913  68.5338903  46.9778553  54.7894913  68.0918903
  47.6408553  54.7584913  69.2918903  47.5248553  55.0674913  68.5798903
  42.3138553  64.6974913  65.1468903  42.1588553  65.3074913  65.7508903
  42.8478553  64.1394913  65.5528903  42.3698553  64.7054913  65.2958903
  45.9238553  67.4264913  61.6738903  45.4448553  67.7244913  61.0078903
  45.5678553  66.6504913  61.8518903  45.8008553  67.3554913  61.6018903
  33.7688553  64.8374913  62.5518903  34.4908553  65.3254913  62.5148903
  33.4988553  64.8074913  61.7228903  33.8358553  64.9054913  62.4238903
  46.8548553  64.3684913  62.7928903  46.8478553  63.5924913  63.1908903
  46.0138553  64.6024913  62.7858903  46.7298553  64.2884913  62.8508903
  33.1638553  65.8894913  66.8298903  32.7428553  65.3714913  66.2688903
  32.8118553  66.6754913  66.6868903  33.0498553  65.9294913  66.7258903
  48.1108553  64.4394913  60.2298903  47.8248553  64.8404913  60.9498903
  48.9708553  64.3774913  60.3568903  48.1958553  64.4894913  60.3548903
  45.7728553  58.3634913  68.7698903  45.2478553  58.8224913  69.2938903
  45.4118553  57.5684913  68.7638903  45.6418553  58.3134913  68.8458903
  49.2418553  70.0724913  60.7588903  49.5318553  70.3294913  59.9778903
  49.9368553  70.1684913  61.2778903  49.3878553  70.1244913  60.7198903
  44.2648553  61.9324913  68.8458903  44.3378553  62.0364913  69.7088903
  43.6308553  62.4904913  68.6248903  44.1818553  62.0304913  68.9408903
  46.5328553  62.2514913  67.2108903  46.8518553  63.0374913  67.4138903
  46.1628553  61.9814913  67.9538903  46.5258553  62.3274913  67.3508903
  49.2308553  62.7934913  69.9458903  49.1788553  62.4524913  69.1448903
  49.9678553  63.2604913  69.9238903  49.3318553  62.8124913  69.8238903
  48.7688553  66.4694913  66.1518903  49.3968553  65.9204913  65.8958903
  48.7078553  67.0344913  65.4898903  48.8528553  66.4724913  66.0158903
  37.9028553  67.7004913  63.4478903  37.6048553  68.2924913  64.0148903
  37.9578553  68.1424913  62.6988903  37.8668553  67.8534913  63.4208903
  35.8818553  66.6504913  66.8458903  35.0758553  66.3604913  67.0128903
  35.7928553  67.5184913  66.8518903  35.7498553  66.7354913  66.8708903
  37.1288553  59.7264913  65.6798903  37.2898553  58.9824913  66.1068903
  37.0838553  59.4774913  64.8448903  37.1458553  59.5794913  65.6198903
  39.6828553  71.5164913  58.1668903  40.2288553  72.1954913  58.2208903
  39.3328553  71.5984913  57.3718903  39.7118553  71.6294913  58.0568903
  37.8658553  69.7444913  61.5558903  37.2418553  70.3264913  61.3738903
  38.1138553  69.4584913  60.7698903  37.8098553  69.7884913  61.4128903
  42.1748553  66.3784913  68.5448903  42.9318553  66.6644913  68.2188903
  41.6278553  66.4304913  67.8668903  42.2058553  66.4284913  68.3958903
  46.0838553  68.9284913  67.0488903  46.4298553  69.1984913  67.8028903
  46.3778553  69.5104913  66.4688903  46.1788553  69.0544913  67.0748903
  43.4058553  59.6894913  67.2128903  42.7578553  60.1594913  67.5608903
  43.9708553  59.6004913  67.8718903  43.3938553  59.7454913  67.3618903
  40.5188553  71.3934913  67.4358903  40.9968553  70.7934913  67.0198903
  40.1678553  70.9504913  68.1008903  40.5378553  71.2394913  67.4728903
  40.5778553  66.6124913  66.4558903  39.7828553  66.5484913  66.8068903
  40.6488553  67.4594913  66.2608903  40.4708553  66.7274913  66.4788903
  31.5018553  55.9704913  67.7028903  31.3618553  56.7654913  67.3718903
  30.7158553  55.7274913  67.9918903  31.3648553  56.0524913  67.6968903
  36.4078553  72.8194913  61.7728903  36.4188553  72.8784913  62.6428903
  35.9828553  72.0724913  61.6228903  36.3468553  72.7174913  61.8788903
  43.3228553  65.8674913  57.9718903  43.3988553  66.2084913  58.7708903
  43.4918553  65.0204913  58.0928903  43.3588553  65.7924913  58.1078903
  41.0668553  69.2594913  65.5638903  41.7538553  69.1454913  66.0888903
  41.2008553  70.0504913  65.2198903  41.1878553  69.3594913  65.5908903
  49.2428553  61.8684913  67.3748903  48.3878553  61.7464913  67.5008903
  49.3958553  61.4734913  66.6118903  49.1388553  61.7914913  67.2808903
  43.7558553  62.5334913  65.9508903  43.5008553  61.8144913  66.3728903
  44.5768553  62.6494913  66.2208903  43.8398553  62.4444913  66.0528903
  33.1718553  72.3174913  67.2148903  32.5178553  71.7484913  67.3128903
  32.7968553  73.0904913  67.3658903  33.0198553  72.3474913  67.2518903
  41.6898553  63.7234913  69.1378903  42.0128553  64.4094913  68.7058903
  40.9858553  64.0464913  69.5398903  41.6328553  63.8724913  69.1328903
  44.7738553  72.0974913  60.0668903  44.3228553  72.7404913  60.4458903
  45.4818553  72.0184913  60.5718903  44.8118553  72.1804913  60.1978903
  41.4748553  67.1874913  62.9968903  40.7808553  67.5894913  63.3398903
  42.1518553  67.6204913  63.3358903  41.4718553  67.3104913  63.0978903
  46.8518553  69.7804913  69.5768903  47.6278553  69.3904913  69.6598903
  46.3828553  69.4444913  70.2318903  46.8968553  69.6734913  69.6858903
  34.5428553  60.7254913  65.3438903  34.9178553  61.3444913  64.8568903
  35.2168553  60.2514913  65.6288903  34.6978553  60.7474913  65.3138903
  32.3178553  59.1734913  64.6188903  32.3948553  59.0044913  63.7658903
  33.0638553  59.5794913  64.8158903  32.4388553  59.2084913  64.5218903
  34.8718553  56.5834913  67.0298903  34.7908553  55.7394913  67.2358903
  34.5578553  56.6274913  66.2168903  34.8138553  56.4654913  66.9398903
  41.7968553  68.7784913  56.1658903  41.5918553  69.6114913  56.0068903
  41.0218553  68.3964913  56.2878903  41.6518553  68.8454913  56.1608903
  46.9788553  61.9594913  64.4148903  46.9768553  61.0964913  64.5388903
  47.0458553  62.2834913  65.2218903  46.9888553  61.8794913  64.5518903
  31.7148553  64.3994913  64.8428903  32.0348553  64.6184913  64.0618903
  31.6148553  63.5344913  64.7878903  31.7468553  64.3044913  64.7198903
  42.8578553  56.7594913  68.1968903  42.9498553  57.4714913  68.6908903
  42.2208553  56.3144913  68.5938903  42.7768553  56.7984913  68.3288903
  36.4778553  63.6914913  66.2278903  36.0818553  64.4654913  66.3028903
  36.0718553  63.3184913  65.5518903  36.3598553  63.7504913  66.1388903
  46.0668553  70.8114913  56.1488903  45.8928553  70.1574913  56.6988903
  46.7798553  70.5404913  55.7258903  46.1468553  70.6744913  56.1678903
  43.7418553  68.2644913  63.8398903  43.9478553  68.5654913  64.6318903
  43.6808553  68.9864913  63.3548903  43.7628553  68.4154913  63.8848903
  43.2758553  72.4784913  68.0858903  42.5228553  72.4604913  67.6448903
  43.4438553  73.3304913  68.1698903  43.1898553  72.6014913  68.0328903
  38.5128553  61.7454913  67.2558903  38.1908553  61.1694913  66.6858903
  38.1538553  62.5004913  67.0098903  38.4128553  61.7714913  67.1358903
  48.5538553  66.9034913  63.2978903  48.5218553  66.0414913  63.1628903
  47.8608553  67.2054913  62.8638903  48.4468553  66.8204913  63.2138903
  36.9478553  72.1014913  67.5038903  36.9888553  72.2274913  68.3668903
  37.5988553  71.5414913  67.3478903  37.0498553  72.0374913  67.6088903
  46.6588553  70.1634913  62.0948903  47.1858553  70.0804913  61.4038903
  46.2678553  69.3854913  62.1488903  46.6788553  70.0364913  62.0008903
  34.5408553  70.4844913  68.8638903  35.1358553  70.9154913  69.3358903
  34.1768553  71.1084913  68.3748903  34.5748553  70.6404913  68.8608903
  32.4678553  68.4734913  65.7928903  31.8938553  68.8894913  66.3018903
  33.2008553  68.9384913  65.8878903  32.4918553  68.6034913  65.8818903
  47.5808553  72.2014913  51.7758903  48.2178553  72.0674913  52.3568903
  47.2398553  71.4074913  51.6588903  47.6248553  72.0644913  51.8438903
  47.7758553  64.6194913  68.5088903  48.4098553  64.4494913  69.0828903
  48.1928553  65.0224913  67.8568903  47.9308553  64.6544913  68.4978903
  48.4008553  59.1834913  69.2468903  48.2048553  59.8274913  69.8018903
  47.6788553  58.6934913  69.2388903  48.2658553  59.2064913  69.3278903
  48.2998553  60.1244913  62.2178903  47.4668553  60.3744913  62.1458903
  48.2438553  59.2844913  62.4468903  48.1688553  60.0374913  62.2408903
  45.1868553  64.7304913  69.8638903  46.0578553  64.6944913  69.8278903
  44.9678553  65.1504913  69.1318903  45.2838553  64.7864913  69.7508903
  34.9408553  70.5554913  61.0448903  34.8618553  69.7454913  60.7288903
  34.4968553  71.0424913  60.4728903  34.8638553  70.5074913  60.9138903
  32.5128553  72.7994913  64.6258903  33.0058553  72.7434913  65.3438903
  32.7008553  72.0664913  64.1908903  32.6138553  72.6824913  64.6678903
  33.0288553  70.1584913  33.0496493  33.4958553  70.2424913  32.3176493
  33.4838553  69.5804913  33.5186493  33.1648553  70.0854913  33.0106493
  31.3808553  71.0984913  39.2636493  30.7888553  71.6564913  38.9506493
  31.8068553  70.8294913  38.5516493  31.3568553  71.1404913  39.1126493
  37.2208553  68.9424913  36.7436493  36.6418553  68.6674913  37.3356493
  37.8448553  68.3334913  36.7686493  37.2278553  68.8124913  36.8346493
  43.3638553  71.2304913  34.2656493  44.0908553  71.7024913  34.3676493
  43.5928553  70.4364913  34.5456493  43.5058553  71.1834913  34.3226493
  41.5318553  71.6224913  36.2556493  41.7458553  72.1494913  36.9176493
  42.2988553  71.4484913  35.8766493  41.6768553  71.6744913  36.2976493
  32.9258553  69.7684913  37.1946493  33.5818553  69.1934913  37.2096493
  33.3148553  70.5174913  36.9736493  33.0808553  69.7934913  37.1646493
  36.9748553  71.1074913  39.9906493  37.8188553  71.2114913  39.7956493
  36.6778553  71.9254913  40.0586493  37.0558553  71.2434913  39.9716493
  35.9728553  72.3264913  45.7306493  36.2648553  72.2594913  46.5506493
  35.3468553  71.7214913  45.6856493  35.9238553  72.2274913  45.8456493
  40.3628553  69.0144913  33.0146493  40.1818553  69.5594913  33.6716493
  41.1288553  69.3044913  32.7136493  40.4488553  69.1384913  33.0676493
  33.3728553  72.3794913  40.5836493  32.6998553  71.8814913  40.3386493
  33.7758553  72.5644913  39.8326493  33.3328553  72.3334913  40.4366493
  39.5338553  71.5624913  43.9556493  39.2568553  70.9214913  43.4326493
  39.3258553  72.2884913  43.5176493  39.4628553  71.5754913  43.8136493
  37.2148553  71.7054913  36.1426493  37.0678553  70.9294913  36.5136493
  37.9038553  71.5584913  35.6276493  37.2948553  71.5684913  36.1216493
  39.5068553  71.2214913  34.5446493  40.1288553  71.3844913  35.1346493
  39.5428553  71.9124913  34.0126493  39.6038553  71.3474913  34.5536493
  36.6728553  71.8744913  32.1156493  37.1118553  71.1774913  32.4036493
  36.8798553  72.4984913  32.6886493  36.7688553  71.8634913  32.2426493
  39.6828553  71.5164913  39.1606493  40.2288553  72.1954913  39.2146493
  39.3328553  71.5984913  38.3656493  39.7118553  71.6294913  39.0506493
  47.1068553  64.7004913  36.6106493  47.5828553  63.9714913  36.5626493
  46.2858553  64.4144913  36.5346493  47.0558553  64.5504913  36.5916493
  36.4078553  72.8194913  42.7666493  36.4188553  72.8784913  43.6366493
  35.9828553  72.0724913  42.6166493  36.3468553  72.7174913  42.8726493
  33.1718553  72.3174913  48.2086493  32.5178553  71.7484913  48.3066493
  32.7968553  73.0904913  48.3596493  33.0198553  72.3474913  48.2456493
  41.7968553  68.7784913  37.1596493  41.5918553  69.6114913  37.0006493
  41.0218553  68.3964913  37.2816493  41.6518553  68.8454913  37.1546493
  37.1588553  69.0404913  33.5686493  37.5998553  69.1204913  34.3166493
  36.3538553  68.8244913  33.8266493  37.1048553  69.0204913  33.7176493
  37.3068553  66.3554913  32.9126493  36.4888553  66.0874913  33.0526493
  37.2788553  67.2074913  33.0976493  37.1818553  66.4424913  32.9606493
  34.2538553  71.7404913  35.5616493  34.1088553  71.8964913  34.7156493
  35.1198553  71.8194913  35.6396493  34.3608553  71.7754913  35.4486493
  43.6558553  68.4664913  35.0916493  43.4048553  68.3384913  35.9176493
  43.3388553  67.7714913  34.6706493  43.5718553  68.3454913  35.1516493
  34.9408553  70.5554913  42.0386493  34.8618553  69.7454913  41.7226493
  34.4968553  71.0424913  41.4666493  34.8638553  70.5074913  41.9076493
  32.5128553  72.7994913  45.6196493  33.0058553  72.7434913  46.3376493
  32.7008553  72.0664913  45.1846493  32.6138553  72.6824913  45.6616493
  31.6288553  66.3714913  18.8874083  31.1878553  66.4894913  19.6304083
  31.3458553  65.5964913  18.6024083  31.5218553  66.2744913  18.9554083
  47.9038553  69.6724913  16.4024083  48.6048553  69.1534913  16.3984083
  47.3168553  69.2274913  15.9334083  47.9208553  69.5294913  16.3324083
  31.3718553  60.1634913  15.3944083  30.5938553  60.3254913  15.0344083
  31.4108553  59.2924913  15.4164083  31.2628553  60.0584913  15.3444083
  34.5108553  65.4264913  14.0664083  34.1188553  65.0554913  13.3804083
  34.4308553  64.8284913  14.6954083  34.4408553  65.2834913  14.0574083
  34.1378553  67.0674913  17.9664083  34.7458553  66.8974913  18.5694083
  33.3868553  66.9274913  18.3874083  34.1168553  67.0214913  18.1174083
  33.0288553  70.1584913  14.0434083  33.4958553  70.2424913  13.3114083
  33.4838553  69.5804913  14.5124083  33.1648553  70.0854913  14.0044083
  31.5688553  69.1064913  25.1424083  31.6978553  68.8264913  25.9584083
  30.9588553  68.5654913  24.8334083  31.4978553  68.9854913  25.2174083
  38.1428553  66.6314913  30.2094083  37.9068553  66.6284913  31.0494083
  37.3948553  66.4834913  29.7854083  37.9968553  66.6084913  30.2704083
  33.0148553  63.6274913  19.3444083  32.5528553  63.2354913  18.7174083
  33.7148553  63.1144913  19.4364083  33.0498553  63.4944913  19.2654083
  38.1248553  69.8234913  27.4724083  38.2628553  70.5834913  27.0654083
  38.9158553  69.4584913  27.4994083  38.2618553  69.8824913  27.4164083
  35.0158553  61.7274913  19.3674083  35.8328553  61.5404913  19.6104083
  34.5388553  61.1134913  19.7634083  35.0658553  61.6094913  19.4624083
  39.2768553  67.1574913  18.1884083  39.6078553  66.5134913  18.6744083
  39.5168553  66.9464913  17.3774083  39.3608553  67.0314913  18.1404083
  43.2648553  58.8894913  13.1554083  42.8148553  59.5704913  13.4624083
  43.3788553  58.3854913  13.8584083  43.2158553  58.9154913  13.3044083
  31.4708553  61.3884913  22.3574083  31.2148553  62.2194913  22.2824083
  30.8068553  61.0054913  22.7744083  31.3348553  61.4544913  22.4084083
  31.3808553  71.0984913  20.2574083  30.7888553  71.6564913  19.9444083
  31.8068553  70.8294913  19.5454083  31.3568553  71.1404913  20.1064083
  37.2208553  68.9424913  17.7374083  36.6418553  68.6674913  18.3294083
  37.8448553  68.3334913  17.7624083  37.2278553  68.8124913  17.8284083
  43.3638553  71.2304913  15.2594083  44.0908553  71.7024913  15.3614083
  43.5928553  70.4364913  15.5394083  43.5058553  71.1834913  15.3164083
  41.5318553  71.6224913  17.2494083  41.7458553  72.1494913  17.9114083
  42.2988553  71.4484913  16.8704083  41.6768553  71.6744913  17.2914083
  32.9258553  69.7684913  18.1884083  33.5818553  69.1934913  18.2034083
  33.3148553  70.5174913  17.9674083  33.0808553  69.7934913  18.1584083
  43.9708553  71.6324913  25.5544083  44.7148553  72.0884913  25.5444083
  43.8498553  71.4184913  24.7174083  44.0628553  71.6684913  25.4294083
  33.7438553  68.2554913  21.6884083  34.1668553  67.8994913  21.0144083
  34.0678553  67.8334913  22.3804083  33.8538553  68.1404913  21.6914083
  36.9748553  71.1074913  20.9844083  37.8188553  71.2114913  20.7894083
  36.6778553  71.9254913  21.0524083  37.0558553  71.2434913  20.9654083
  40.7818553  60.5044913  19.0714083  41.0688553  60.2724913  18.2814083
  41.5138553  60.5834913  19.5404083  40.9318553  60.4814913  19.0244083
  41.5038553  60.8434913  14.1924083  41.7848553  61.6314913  14.4414083
  40.7278553  61.0084913  13.8294083  41.4308553  60.9844913  14.1754083
  45.5448553  72.8174913  15.6594083  46.2098553  72.6694913  15.1144083
  45.9048553  72.7344913  16.4494083  45.6968553  72.7834913  15.6954083
  35.9728553  72.3264913  26.7244083  36.2648553  72.2594913  27.5444083
  35.3468553  71.7214913  26.6794083  35.9238553  72.2274913  26.8394083
  40.3628553  69.0144913  14.0084083  40.1818553  69.5594913  14.6654083
  41.1288553  69.3044913  13.7074083  40.4488553  69.1384913  14.0614083
  43.8698553  56.9104913  15.0624083  44.4098553  56.2284913  15.1384083
  43.9318553  57.3084913  15.8364083  43.9588553  56.8684913  15.1884083
  33.9658553  70.4884913  25.8464083  33.2678553  69.9804913  25.9724083
  34.2258553  70.2834913  25.0384083  33.9008553  70.3834913  25.7454083
  41.1278553  59.2864913  16.3764083  40.6198553  58.6244913  16.1224083
  41.1798553  59.7904913  15.6664083  41.0608553  59.2634913  16.2344083
  41.6768553  71.9814913  26.7564083  42.4448553  71.9014913  26.3504083
  41.0938553  71.8604913  26.1184083  41.7038553  71.9514913  26.6024083
  47.9538553  72.5844913  19.6574083  47.4988553  73.3014913  19.8584083
  47.3398553  72.0134913  19.4154083  47.7958553  72.6064913  19.6514083
  44.9508553  68.4294913  19.2014083  45.6518553  67.9474913  19.3904083
  44.2908553  67.8604913  19.2464083  44.9568553  68.2744913  19.2354083
  35.3268553  69.3394913  28.4134083  36.1678553  69.4024913  28.1914083
  35.2898553  69.7364913  29.1894083  35.4458553  69.4074913  28.4954083
  37.2898553  64.8504913  23.1624083  37.4618553  64.6404913  23.9914083
  36.6348553  64.3164913  22.9464083  37.2188553  64.7404913  23.2534083
  30.8608553  69.1594913  31.9634083  31.6168553  69.5084913  32.2214083
  31.0378553  68.3064913  31.9064083  30.9988553  69.0844913  31.9934083
  47.4698553  65.9224913  15.0094083  47.5888553  65.6354913  15.8244083
  48.2768553  65.9434913  14.6794083  47.6058553  65.8834913  15.0814083
  34.6058553  65.6544913  20.3404083  35.4568553  65.5744913  20.1674083
  34.2488553  64.9724913  19.9284083  34.6788553  65.5414913  20.2534083
  33.3728553  72.3794913  21.5774083  32.6998553  71.8814913  21.3324083
  33.7758553  72.5644913  20.8264083  33.3328553  72.3334913  21.4304083
  45.3648553  62.4594913  14.5944083  45.1448553  63.1904913  14.1724083
  44.9168553  62.5104913  15.3414083  45.2658553  62.5744913  14.6424083
  36.9738553  65.6614913  18.5754083  37.6868553  66.1564913  18.6654083
  37.1958553  65.0944913  17.9494083  37.1118553  65.6504913  18.4964083
  49.5518553  57.3204913  14.0474083  48.8898553  56.7524913  14.0704083
  49.3588553  57.8324913  13.3674083  49.4258553  57.3124913  13.9504083
  31.1298553  67.3044913  21.8954083  30.4628553  67.7924913  22.1714083
  31.8098553  67.8494913  21.9244083  31.1318553  67.4564913  21.9404083
  31.1958553  63.9884913  16.9984083  31.0108553  63.1494913  17.1504083
  31.8548553  63.9524913  16.4284083  31.2658553  63.8594913  16.9364083
  41.4968553  69.3644913  20.9024083  40.9738553  69.9984913  20.6094083
  41.8068553  69.0004913  20.1734083  41.4648553  69.4044913  20.7514083
  31.3678553  68.1524913  16.5734083  31.9198553  68.7214913  16.9374083
  31.1358553  67.6374913  17.2384083  31.4148553  68.1604913  16.7254083
  35.5718553  67.1524913  23.6624083  36.0388553  67.4414913  24.3404083
  36.1438553  66.6744913  23.2084083  35.7258553  67.1244913  23.6954083
  31.1978553  66.6014913  14.2014083  31.9538553  66.1694913  14.2594083
  31.2128553  67.1334913  14.8924083  31.3118553  66.6164913  14.3124083
  32.1378553  64.8224913  22.2064083  32.5688553  64.6934913  21.4594083
  31.9328553  65.6704913  22.1804083  32.1708553  64.9284913  22.0924083
  38.4838553  58.3864913  15.8564083  38.4818553  58.2694913  14.9914083
  38.3028553  59.2344913  15.9484083  38.4568553  58.4944913  15.7424083
  36.2218553  68.3384913  20.4884083  36.3478553  69.1814913  20.6754083
  36.8898553  67.9394913  20.8844083  36.3398553  68.4044913  20.5744083
  34.8368553  61.2184913  15.4904083  34.7088553  60.7704913  16.2284083
  34.2548553  60.8764913  14.9384083  34.7318553  61.1014913  15.5184083
  35.0038553  63.0484913  22.0894083  34.2228553  62.9894913  21.7064083
  35.0758553  62.2964913  22.5264083  34.8988553  62.9294913  22.0974083
  39.5338553  71.5624913  24.9494083  39.2568553  70.9214913  24.4264083
  39.3258553  72.2884913  24.5114083  39.4628553  71.5754913  24.8074083
  33.2328553  64.1404913  31.1164083  33.1958553  64.6414913  30.4024083
  33.5638553  63.3884913  30.8214083  33.2758553  64.1024913  30.9674083
  39.1318553  69.1904913  30.5514083  39.4858553  69.0124913  31.3284083
  38.6958553  68.4614913  30.3524083  39.1198553  69.0564913  30.6374083
  42.2928553  63.1064913  15.4634083  42.2848553  63.8284913  14.9734083
  41.6538553  63.2414913  16.0404083  42.1978553  63.2334913  15.4764083
  43.3098553  70.0424913  23.2884083  42.7068553  69.7464913  22.7314083
  43.8548553  70.4944913  22.7794083  43.3008553  70.0654913  23.1304083
  37.2148553  71.7054913  17.1364083  37.0678553  70.9294913  17.5074083
  37.9038553  71.5584913  16.6214083  37.2948553  71.5684913  17.1154083
  36.8858553  55.4484913  15.1244083  36.9828553  55.3414913  15.9854083
  36.1778553  55.9544913  15.0594083  36.7958553  55.5074913  15.2424083
  39.5068553  71.2214913  15.5384083  40.1288553  71.3844913  16.1284083
  39.5428553  71.9124913  15.0064083  39.6038553  71.3474913  15.5474083
  42.7738553  70.2404913  31.8114083  42.9378553  70.5234913  32.6204083
  43.0368553  70.9014913  31.3064083  42.8368553  70.3804913  31.8564083
  34.0078553  63.7554913  16.3674083  34.3318553  62.9764913  16.1454083
  34.6538553  64.1234913  16.8224083  34.1508553  63.6944913  16.4014083
  35.1938553  57.6144913  14.3044083  34.6828553  57.6674913  13.5984083
  35.9778553  57.8544913  14.0084083  35.2338553  57.6574913  14.1564083
  36.6728553  71.8744913  13.1094083  37.1118553  71.1774913  13.3974083
  36.8798553  72.4984913  13.6824083  36.7688553  71.8634913  13.2364083
  33.7688553  64.8374913  24.5394083  34.4908553  65.3254913  24.5024083
  33.4988553  64.8074913  23.7104083  33.8358553  64.9054913  24.4114083
  49.6158553  71.5924913  15.6014083  50.3098553  71.1254913  15.3534083
  49.0768553  70.9944913  15.9384083  49.6388553  71.4344913  15.6144083
  31.8198553  61.3464913  17.9294083  32.3088553  61.0544913  18.5904083
  31.9488553  60.7534913  17.3024083  31.9108553  61.2154913  17.9344083
  36.3448553  62.7804913  13.4154083  35.7348553  62.3754913  13.8894083
  35.9588553  62.8984913  12.6424083  36.1978553  62.7374913  13.3714083
  33.1638553  65.8894913  28.8174083  32.7428553  65.3714913  28.2564083
  32.8118553  66.6754913  28.6744083  33.0498553  65.9294913  28.7134083
  37.7998553  61.2414913  16.1254083  38.0718553  62.0674913  16.1924083
  36.9368553  61.3164913  16.0294083  37.7128553  61.3744913  16.1204083
  31.2798553  57.2114913  22.6614083  31.3238553  57.5554913  21.8604083
  32.0348553  57.4484913  23.0284083  31.3978553  57.2974913  22.5974083
  45.8468553  68.6754913  14.7284083  46.1808553  67.8694913  14.7634083
  45.0918553  68.6034913  15.1584083  45.7848553  68.5454913  14.7974083
  43.2208553  66.5504913  14.1314083  43.9048553  66.0364913  13.9624083
  42.8038553  66.5964913  13.3664083  43.2598553  66.4814913  13.9934083
  37.9028553  67.7004913  25.4354083  37.6048553  68.2924913  26.0024083
  37.9578553  68.1424913  24.6864083  37.8668553  67.8534913  25.4084083
  35.8818553  66.6504913  28.8334083  35.0758553  66.3604913  29.0004083
  35.7928553  67.5184913  28.8394083  35.7498553  66.7354913  28.8584083
  39.6828553  71.5164913  20.1544083  40.2288553  72.1954913  20.2084083
  39.3328553  71.5984913  19.3594083  39.7118553  71.6294913  20.0444083
  37.8658553  69.7444913  23.5434083  37.2418553  70.3264913  23.3614083
  38.1138553  69.4584913  22.7574083  37.8098553  69.7884913  23.4004083
  47.9468553  61.0744913  14.3754083  48.3248553  61.7514913  13.9754083
  47.1048553  61.2984913  14.4064083  47.8778553  61.2074913  14.3204083
  39.4598553  64.5204913  13.4584083  38.6548553  64.3434913  13.1734083
  39.4268553  65.3714913  13.6504083  39.3358553  64.6194913  13.4454083
  40.5188553  71.3934913  29.4234083  40.9968553  70.7934913  29.0074083
  40.1678553  70.9504913  30.0884083  40.5378553  71.2394913  29.4604083
  40.5778553  66.6124913  28.4434083  39.7828553  66.5484913  28.7944083
  40.6488553  67.4594913  28.2484083  40.4708553  66.7274913  28.4664083
  36.4078553  72.8194913  23.7604083  36.4188553  72.8784913  24.6304083
  35.9828553  72.0724913  23.6104083  36.3468553  72.7174913  23.8664083
  34.5658553  58.7144913  16.9154083  34.6918553  58.3854913  16.1174083
  33.7538553  58.4654913  17.1144083  34.4648553  58.6294913  16.8274083
  41.0668553  69.2594913  27.5514083  41.7538553  69.1454913  28.0764083
  41.2008553  70.0504913  27.2074083  41.1878553  69.3594913  27.5784083
  33.1718553  72.3174913  29.2024083  32.5178553  71.7484913  29.3004083
  32.7968553  73.0904913  29.3534083  33.0198553  72.3474913  29.2394083
  44.7738553  72.0974913  22.0544083  44.3228553  72.7404913  22.4334083
  45.4818553  72.0184913  22.5594083  44.8118553  72.1804913  22.1854083
  41.7968553  68.7784913  18.1534083  41.5918553  69.6114913  17.9944083
  41.0218553  68.3964913  18.2754083  41.6518553  68.8454913  18.1484083
  31.7148553  64.3994913  26.8304083  32.0348553  64.6184913  26.0494083
  31.6148553  63.5344913  26.7754083  31.7468553  64.3044913  26.7074083
  33.1708553  60.3354913  13.4484083  32.4988553  60.3494913  14.0044083
  33.2658553  59.4874913  13.2644083  33.0858553  60.2124913  13.5034083
  37.1588553  69.0404913  14.5624083  37.5998553  69.1204913  15.3104083
  36.3538553  68.8244913  14.8204083  37.1048553  69.0204913  14.7114083
  46.0668553  70.8114913  18.1364083  45.8928553  70.1574913  18.6864083
  46.7798553  70.5404913  17.7134083  46.1468553  70.6744913  18.1554083
  34.4878553  68.1104913  15.1634083  34.2438553  67.8034913  15.9434083
  34.4548553  67.4074913  14.6474083  34.4468553  67.9614913  15.2024083
  37.3068553  66.3554913  13.9064083  36.4888553  66.0874913  14.0464083
  37.2788553  67.2074913  14.0914083  37.1818553  66.4424913  13.9544083
  43.2758553  72.4784913  30.0734083  42.5228553  72.4604913  29.6324083
  43.4438553  73.3304913  30.1574083  43.1898553  72.6014913  30.0204083
  39.3088553  54.9974913  13.8704083  39.3868553  55.2444913  13.0374083
  38.5658553  55.3744913  14.1284083  39.2108553  55.0894913  13.7854083
  36.9478553  72.1014913  29.4914083  36.9888553  72.2274913  30.3544083
  37.5988553  71.5414913  29.3354083  37.0498553  72.0374913  29.5964083
  34.5408553  70.4844913  30.8514083  35.1358553  70.9154913  31.3234083
  34.1768553  71.1084913  30.3624083  34.5748553  70.6404913  30.8484083
  32.7798553  60.0654913  20.2694083  32.4118553  60.3674913  21.0004083
  33.3138553  59.4364913  20.5534083  32.8038553  60.0174913  20.4194083
  32.4678553  68.4734913  27.7804083  31.8938553  68.8894913  28.2894083
  33.2008553  68.9384913  27.8754083  32.4918553  68.6034913  27.8694083
  34.2538553  71.7404913  16.5554083  34.1088553  71.8964913  15.7094083
  35.1198553  71.8194913  16.6334083  34.3608553  71.7754913  16.4424083
  38.4208553  64.1374913  16.2834083  38.5208553  64.2764913  15.4284083
  39.2388553  64.0774913  16.5794083  38.5558553  64.1484913  16.2004083
  47.5808553  72.2014913  13.7634083  48.2178553  72.0674913  14.3444083
  47.2398553  71.4074913  13.6464083  47.6248553  72.0644913  13.8314083
  43.6558553  68.4664913  16.0854083  43.4048553  68.3384913  16.9114083
  43.3388553  67.7714913  15.6644083  43.5718553  68.3454913  16.1454083
  34.9408553  70.5554913  23.0324083  34.8618553  69.7454913  22.7164083
  34.4968553  71.0424913  22.4604083  34.8638553  70.5074913  22.9014083
  40.5418553  66.6744913  15.5154083  41.2588553  66.3274913  15.1594083
  40.5078553  67.4744913  15.1674083  40.6428553  66.7414913  15.4114083
  32.5128553  72.7994913  26.6134083  33.0058553  72.7434913  27.3314083
  32.7008553  72.0664913  26.1784083  32.6138553  72.6824913  26.6554083
  41.7598553  62.2314913   4.4251673  41.2358553  62.8274913   4.7881673
  42.1568553  61.8634913   5.1091673  41.7408553  62.2654913   4.5801673
  31.5688553  69.1064913   6.1361673  31.6978553  68.8264913   6.9521673
  30.9588553  68.5654913   5.8271673  31.4978553  68.9854913   6.2111673
  38.1428553  66.6314913  11.2031673  37.9068553  66.6284913  12.0431673
  37.3948553  66.4834913  10.7791673  37.9968553  66.6084913  11.2641673
  37.5228553  59.2374913   5.6851673  38.2008553  59.2554913   5.1361673
  37.4778553  58.4014913   5.9301673  37.6158553  59.1164913   5.6401673
  38.1248553  69.8234913   8.4661673  38.2628553  70.5834913   8.0591673
  38.9158553  69.4584913   8.4931673  38.2618553  69.8824913   8.4101673
  39.2198553  67.7084913   2.9711673  39.5678553  66.9094913   3.0011673
  39.8848553  68.2124913   2.7161673  39.3698553  67.6644913   2.9381673
  41.2448553  61.2884913  10.5211673  40.3968553  61.1894913  10.3431673
  41.2738553  62.0334913  10.9751673  41.1238553  61.3844913  10.5621673
  45.8028553  54.2484913   9.6351673  45.6448553  55.0174913   9.2531673
  45.0308553  54.0284913   9.9791673  45.6648553  54.3294913   9.6301673
  31.4708553  61.3884913   3.3511673  31.2148553  62.2194913   3.2761673
  30.8068553  61.0054913   3.7681673  31.3348553  61.4544913   3.4021673
  34.4998553  56.2054913   3.8421673  33.9788553  55.5774913   3.5341673
  35.0908553  55.7684913   4.3131673  34.5108553  56.0474913   3.8661673
  37.8058553  58.3384913  13.1401673  37.9228553  57.8844913  12.4041673
  38.0938553  59.1364913  12.9371673  37.8658553  58.3894913  13.0011673
  43.9708553  71.6324913   6.5481673  44.7148553  72.0884913   6.5381673
  43.8498553  71.4184913   5.7111673  44.0628553  71.6684913   6.4231673
  33.5388553  57.9354913  12.1241673  32.7608553  57.5454913  12.0521673
  34.0298553  57.5234913  11.5331673  33.4958553  57.8164913  12.0261673
  33.7438553  68.2554913   2.6821673  34.1668553  67.8994913   2.0081673
  34.0678553  67.8334913   3.3741673  33.8538553  68.1404913   2.6851673
  36.9748553  71.1074913   1.9781673  37.8188553  71.2114913   1.7831673
  36.6778553  71.9254913   2.0461673  37.0558553  71.2434913   1.9591673
  40.1878553  55.5784913  11.2921673  40.3658553  54.7694913  11.0171673
  40.0448553  56.0194913  10.5531673  40.1928553  55.5244913  11.1421673
  35.9728553  72.3264913   7.7181673  36.2648553  72.2594913   8.5381673
  35.3468553  71.7214913   7.6731673  35.9238553  72.2274913   7.8331673
  48.3338553  57.1854913   5.8131673  49.0908553  57.2574913   5.3851673
  48.3968553  56.4124913   6.2121673  48.4548553  57.0824913   5.8081673
  30.8868553  58.4834913   9.7101673  30.8828553  59.0704913  10.3561673
  31.4808553  58.7954913   9.1531673  30.9738553  58.6164913   9.7231673
  43.2248553  68.8174913  10.2521673  43.1908553  69.1994913  11.0361673
  44.0788553  68.7754913  10.0811673  43.3458553  68.8674913  10.3431673
  33.9658553  70.4884913   6.8401673  33.2678553  69.9804913   6.9661673
  34.2258553  70.2834913   6.0321673  33.9008553  70.3834913   6.7391673
  41.6768553  71.9814913   7.7501673  42.4448553  71.9014913   7.3441673
  41.0938553  71.8604913   7.1121673  41.7038553  71.9514913   7.5961673
  35.3268553  69.3394913   9.4071673  36.1678553  69.4024913   9.1851673
  35.2898553  69.7364913  10.1831673  35.4458553  69.4074913   9.4891673
  37.2898553  64.8504913   4.1561673  37.4618553  64.6404913   4.9851673
  36.6348553  64.3164913   3.9401673  37.2188553  64.7404913   4.2471673
  43.5178553  58.7644913   7.6711673  43.4228553  59.0834913   8.4771673
  42.9248553  58.1254913   7.6331673  43.4158553  58.7164913   7.7851673
  38.0398553  64.7884913   6.7461673  38.0928553  65.6354913   6.9481673
  37.7548553  64.4184913   7.4831673  38.0058553  64.8584913   6.8841673
  44.2168553  65.4834913   5.8761673  43.7028553  65.0714913   6.4471673
  44.0908553  66.3274913   6.0571673  44.1228553  65.5474913   5.9871673
  30.8608553  69.1594913  12.9571673  31.6168553  69.5084913  13.2151673
  31.0378553  68.3064913  12.9001673  30.9988553  69.0844913  12.9871673
  47.2378553  58.9444913   8.8151673  48.0098553  58.7194913   9.1521673
  46.7628553  59.1614913   9.5151673  47.2818553  58.9434913   8.9681673
  33.3728553  72.3794913   2.5711673  32.6998553  71.8814913   2.3261673
  33.7758553  72.5644913   1.8201673  33.3328553  72.3334913   2.4241673
  32.9228553  59.3294913   4.8671673  33.7658553  59.5494913   4.8241673
  32.5338553  59.9024913   4.3361673  32.9898553  59.4464913   4.7821673
  49.7038553  70.4314913  10.2571673  49.0218553  70.7414913   9.8101673
  49.3348553  69.9734913  10.9021673  49.5478553  70.4094913  10.2861673
  31.1298553  67.3044913   2.8891673  30.4628553  67.7924913   3.1651673
  31.8098553  67.8494913   2.9181673  31.1318553  67.4564913   2.9341673
  38.7768553  61.0144913  12.9851673  38.2928553  61.5914913  13.4271673
  38.7488553  61.3094913  12.1641673  38.7008553  61.1434913  12.9291673
  49.8748553  61.6984913   7.5971673  50.0898553  60.8984913   7.3211673
  49.0248553  61.7584913   7.4081673  49.7808553  61.5894913   7.5281673
  35.5718553  67.1524913   4.6561673  36.0388553  67.4414913   5.3341673
  36.1438553  66.6744913   4.2021673  35.7258553  67.1244913   4.6891673
  44.0078553  59.1664913   2.3931673  44.3518553  59.3184913   3.1801673
  43.5548553  58.4284913   2.5061673  43.9918553  59.0794913   2.5261673
  32.1378553  64.8224913   3.2001673  32.5688553  64.6934913   2.4531673
  31.9328553  65.6704913   3.1741673  32.1708553  64.9284913   3.0861673
  47.5378553  70.8134913   8.3471673  46.8668553  71.3274913   8.5651673
  47.6008553  70.9134913   7.4831673  47.4478553  70.9044913   8.2521673
  34.3518553  61.8214913  11.3441673  33.8158553  61.3154913  11.8121673
  34.3718553  61.4314913  10.5641673  34.2748553  61.6884913  11.2981673
  35.0038553  63.0484913   3.0831673  34.2228553  62.9894913   2.7001673
  35.0758553  62.2964913   3.5201673  34.8988553  62.9294913   3.0911673
  35.4338553  62.7854913   6.5511673  35.4588553  62.1104913   6.0001673
  34.7878553  63.2814913   6.2391673  35.3428553  62.7584913   6.4241673
  45.3288553  60.4984913   4.9471673  44.6668553  60.8264913   5.4101673
  45.5158553  61.1324913   4.3781673  45.2588553  60.6404913   4.9311673
  39.5338553  71.5624913   5.9431673  39.2568553  70.9214913   5.4201673
  39.3258553  72.2884913   5.5051673  39.4628553  71.5754913   5.8011673
  41.9738553  56.4044913   8.3761673  42.1228553  55.5794913   8.1331673
  42.3528553  56.4594913   9.1601673  42.0518553  56.2904913   8.4561673
  33.2328553  64.1404913  12.1101673  33.1958553  64.6414913  11.3961673
  33.5638553  63.3884913  11.8151673  33.2758553  64.1024913  11.9611673
  44.8358553  66.3454913  10.3681673  45.3198553  67.0634913  10.4661673
  45.2298553  65.9184913   9.7171673  44.9658553  66.3884913  10.2861673
  39.1318553  69.1904913  11.5451673  39.4858553  69.0124913  12.3221673
  38.6958553  68.4614913  11.3461673  39.1198553  69.0564913  11.6311673
  40.1038553  59.9374913   4.1831673  40.5838553  60.6364913   4.3911673
  40.4768553  59.2904913   4.6341673  40.2298553  59.9454913   4.2801673
  43.3098553  70.0424913   4.2821673  42.7068553  69.7464913   3.7251673
  43.8548553  70.4944913   3.7731673  43.3008553  70.0654913   4.1241673
  43.3228553  66.8934913   3.6821673  42.5258553  67.1174913   3.9561673
  43.5808553  66.2994913   4.2671673  43.2428553  66.8384913   3.8091673
  46.5828553  64.8914913   8.5281673  46.6378553  65.0164913   7.6661673
  47.3358553  65.2114913   8.8301673  46.7018553  64.9564913   8.4451673
  42.7738553  70.2404913  12.8051673  42.9378553  70.5234913  13.6141673
  43.0368553  70.9014913  12.3001673  42.8368553  70.3804913  12.8501673
  47.6148553  55.1894913  11.5151673  46.9778553  54.7894913  11.0731673
  47.6408553  54.7584913  12.2731673  47.5248553  55.0674913  11.5611673
  42.3138553  64.6974913   8.1281673  42.1588553  65.3074913   8.7321673
  42.8478553  64.1394913   8.5341673  42.3698553  64.7054913   8.2771673
  45.9238553  67.4264913   4.6551673  45.4448553  67.7244913   3.9891673
  45.5678553  66.6504913   4.8331673  45.8008553  67.3554913   4.5831673
  39.9208553  65.1444913   3.2171673  39.0738553  64.9504913   3.2981673
  40.2448553  64.9794913   4.0101673  39.8428553  65.0914913   3.3461673
  33.7688553  64.8374913   5.5331673  34.4908553  65.3254913   5.4961673
  33.4988553  64.8074913   4.7041673  33.8358553  64.9054913   5.4051673
  36.9988553  60.0084913   2.2681673  37.8448553  59.8184913   2.3661673
  36.6288553  59.2314913   2.1301673  37.0688553  59.8654913   2.2621673
  46.8548553  64.3684913   5.7741673  46.8478553  63.5924913   6.1721673
  46.0138553  64.6024913   5.7671673  46.7298553  64.2884913   5.8321673
  33.1638553  65.8894913   9.8111673  32.7428553  65.3714913   9.2501673
  32.8118553  66.6754913   9.6681673  33.0498553  65.9294913   9.7071673
  48.1108553  64.4394913   3.2111673  47.8248553  64.8404913   3.9311673
  48.9708553  64.3774913   3.3381673  48.1958553  64.4894913   3.3361673
  45.7728553  58.3634913  11.7511673  45.2478553  58.8224913  12.2751673
  45.4118553  57.5684913  11.7451673  45.6418553  58.3134913  11.8271673
  31.2798553  57.2114913   3.6551673  31.3238553  57.5554913   2.8541673
  32.0348553  57.4484913   4.0221673  31.3978553  57.2974913   3.5911673
  49.2418553  70.0724913   3.7401673  49.5318553  70.3294913   2.9591673
  49.9368553  70.1684913   4.2591673  49.3878553  70.1244913   3.7011673
  44.2648553  61.9324913  11.8271673  44.3378553  62.0364913  12.6901673
  43.6308553  62.4904913  11.6061673  44.1818553  62.0304913  11.9221673
  46.5328553  62.2514913  10.1921673  46.8518553  63.0374913  10.3951673
  46.1628553  61.9814913  10.9351673  46.5258553  62.3274913  10.3321673
  49.2308553  62.7934913  12.9271673  49.1788553  62.4524913  12.1261673
  49.9678553  63.2604913  12.9051673  49.3318553  62.8124913  12.8051673
  48.7688553  66.4694913   9.1331673  49.3968553  65.9204913   8.8771673
  48.7078553  67.0344913   8.4711673  48.8528553  66.4724913   8.9971673
  37.9028553  67.7004913   6.4291673  37.6048553  68.2924913   6.9961673
  37.9578553  68.1424913   5.6801673  37.8668553  67.8534913   6.4021673
  35.8818553  66.6504913   9.8271673  35.0758553  66.3604913   9.9941673
  35.7928553  67.5184913   9.8331673  35.7498553  66.7354913   9.8521673
  45.2408553  56.8394913   8.8421673  45.9848553  57.2914913   8.7791673
  44.6748553  57.3094913   8.3731673  45.2678553  56.9764913   8.7641673
  40.4188553  64.1234913   5.9201673  40.8948553  64.4974913   6.5481673
  39.5958553  64.2574913   6.1791673  40.3678553  64.1984913   6.0511673
  37.1288553  59.7264913   8.6611673  37.2898553  58.9824913   9.0881673
  37.0838553  59.4774913   7.8261673  37.1458553  59.5794913   8.6011673
  46.5258553  54.8194913   6.5121673  46.2458553  55.6444913   6.4681673
  47.2418553  54.8724913   7.0081673  46.5908553  54.9494913   6.5791673
  38.8808553  55.5344913   8.5411673  39.5858553  55.8544913   8.1391673
  39.1218553  54.7274913   8.7681673  39.0198553  55.4624913   8.5151673
  37.8658553  69.7444913   4.5371673  37.2418553  70.3264913   4.3551673
  38.1138553  69.4584913   3.7511673  37.8098553  69.7884913   4.3941673
  42.1748553  66.3784913  11.5261673  42.9318553  66.6644913  11.2001673
  41.6278553  66.4304913  10.8481673  42.2058553  66.4284913  11.3771673
  46.0838553  68.9284913  10.0301673  46.4298553  69.1984913  10.7841673
  46.3778553  69.5104913   9.4501673  46.1788553  69.0544913  10.0561673
  35.3898553  60.5874913   4.6021673  35.8298553  60.4844913   3.8561673
  35.9348553  60.2744913   5.2071673  35.5348553  60.5264913   4.5811673
  43.4058553  59.6894913  10.1941673  42.7578553  60.1594913  10.5421673
  43.9708553  59.6004913  10.8531673  43.3938553  59.7454913  10.3431673
  43.0938553  61.2264913   6.4921673  43.3958553  61.6464913   7.1951673
  43.1298553  60.3864913   6.7241673  43.1438553  61.1644913   6.6301673
  40.5188553  71.3934913  10.4171673  40.9968553  70.7934913  10.0011673
  40.1678553  70.9504913  11.0821673  40.5378553  71.2394913  10.4541673
  38.9368553  55.5724913   4.6491673  38.1108553  55.4234913   4.8861673
  38.8968553  55.6074913   3.7781673  38.8088553  55.5554913   4.5551673
  40.5778553  66.6124913   9.4371673  39.7828553  66.5484913   9.7881673
  40.6488553  67.4594913   9.2421673  40.4708553  66.7274913   9.4601673
  36.4078553  72.8194913   4.7541673  36.4188553  72.8784913   5.6241673
  35.9828553  72.0724913   4.6041673  36.3468553  72.7174913   4.8601673
  41.0668553  69.2594913   8.5451673  41.7538553  69.1454913   9.0701673
  41.2008553  70.0504913   8.2011673  41.1878553  69.3594913   8.5721673
  49.2428553  61.8684913  10.3561673  48.3878553  61.7464913  10.4821673
  49.3958553  61.4734913   9.5931673  49.1388553  61.7914913  10.2621673
  43.7558553  62.5334913   8.9321673  43.5008553  61.8144913   9.3541673
  44.5768553  62.6494913   9.2021673  43.8398553  62.4444913   9.0341673
  33.1718553  72.3174913  10.1961673  32.5178553  71.7484913  10.2941673
  32.7968553  73.0904913  10.3471673  33.0198553  72.3474913  10.2331673
  41.6898553  63.7234913  12.1191673  42.0128553  64.4094913  11.6871673
  40.9858553  64.0464913  12.5211673  41.6328553  63.8724913  12.1141673
  44.7738553  72.0974913   3.0481673  44.3228553  72.7404913   3.4271673
  45.4818553  72.0184913   3.5531673  44.8118553  72.1804913   3.1791673
  41.4748553  67.1874913   5.9781673  40.7808553  67.5894913   6.3211673
  42.1518553  67.6204913   6.3171673  41.4718553  67.3104913   6.0791673
  46.8518553  69.7804913  12.5581673  47.6278553  69.3904913  12.6411673
  46.3828553  69.4444913  13.2131673  46.8968553  69.6734913  12.6671673
  34.5428553  60.7254913   8.3251673  34.9178553  61.3444913   7.8381673
  35.2168553  60.2514913   8.6101673  34.6978553  60.7474913   8.2951673
  32.3178553  59.1734913   7.6001673  32.3948553  59.0044913   6.7471673
  33.0638553  59.5794913   7.7971673  32.4388553  59.2084913   7.5031673
  34.8718553  56.5834913  10.0111673  34.7908553  55.7394913  10.2171673
  34.5578553  56.6274913   9.1981673  34.8138553  56.4654913   9.9211673
  46.9788553  61.9594913   7.3961673  46.9768553  61.0964913   7.5201673
  47.0458553  62.2834913   8.2031673  46.9888553  61.8794913   7.5331673
  31.7148553  64.3994913   7.8241673  32.0348553  64.6184913   7.0431673
  31.6148553  63.5344913   7.7691673  31.7468553  64.3044913   7.7011673
  42.8578553  56.7594913  11.1781673  42.9498553  57.4714913  11.6721673
  42.2208553  56.3144913  11.5751673  42.7768553  56.7984913  11.3101673
  45.4498553  57.4654913   4.8321673  46.3048553  57.5644913   4.9771673
  45.0808553  58.0184913   5.3971673  45.5218553  57.5624913   4.9371673
  36.4778553  63.6914913   9.2091673  36.0818553  64.4654913   9.2841673
  36.0718553  63.3184913   8.5331673  36.3598553  63.7504913   9.1201673
  45.7538553  62.7454913   3.3231673  46.4198553  63.2864913   3.4831673
  45.4088553  63.0564913   2.5841673  45.8008553  62.8714913   3.2381673
  36.9068553  56.6684913   6.6591673  36.0428553  56.7524913   6.7391673
  37.1268553  56.1544913   7.3281673  36.8118553  56.6054913   6.7701673
  48.9248553  55.3034913   7.9881673  48.8728553  55.2594913   8.8581673
  49.6118553  54.8004913   7.7981673  49.0188553  55.2234913   8.0881673
  41.0098553  57.4164913   5.0331673  40.2728553  56.9624913   5.1461673
  41.5808553  57.0144913   5.5561673  40.9848553  57.2894913   5.1271673
  43.7418553  68.2644913   6.8211673  43.9478553  68.5654913   7.6131673
  43.6808553  68.9864913   6.3361673  43.7628553  68.4154913   6.8661673
  43.2758553  72.4784913  11.0671673  42.5228553  72.4604913  10.6261673
  43.4438553  73.3304913  11.1511673  43.1898553  72.6014913  11.0141673
  38.5128553  61.7454913  10.2371673  38.1908553  61.1694913   9.6671673
  38.1538553  62.5004913   9.9911673  38.4128553  61.7714913  10.1171673
  48.5538553  66.9034913   6.2791673  48.5218553  66.0414913   6.1441673
  47.8608553  67.2054913   5.8451673  48.4468553  66.8204913   6.1951673
  36.9478553  72.1014913  10.4851673  36.9888553  72.2274913  11.3481673
  37.5988553  71.5414913  10.3291673  37.0498553  72.0374913  10.5901673
  46.6588553  70.1634913   5.0761673  47.1858553  70.0804913   4.3851673
  46.2678553  69.3854913   5.1301673  46.6788553  70.0364913   4.9821673
  34.1268553  56.7514913   7.3071673  33.7838553  55.9844913   7.0731673
  33.4318553  57.2754913   7.3711673  33.9738553  56.7154913   7.2821673
  43.1728553  55.6074913   4.2841673  43.8428553  56.1514913   4.4111673
  42.6698553  56.0314913   3.7111673  43.1978553  55.7504913   4.2181673
  34.5408553  70.4844913  11.8451673  35.1358553  70.9154913  12.3171673
  34.1768553  71.1084913  11.3561673  34.5748553  70.6404913  11.8421673
  42.5318553  61.4154913   1.7771673  43.0828553  60.8084913   2.0771673
  42.1068553  61.6784913   2.4921673  42.5508553  61.3644913   1.9261673
  32.4678553  68.4734913   8.7741673  31.8938553  68.8894913   9.2831673
  33.2008553  68.9384913   8.8691673  32.4918553  68.6034913   8.8631673
  47.7758553  64.6194913  11.4901673  48.4098553  64.4494913  12.0641673
  48.1928553  65.0224913  10.8381673  47.9308553  64.6544913  11.4791673
  48.4008553  59.1834913  12.2281673  48.2048553  59.8274913  12.7831673
  47.6788553  58.6934913  12.2201673  48.2658553  59.2064913  12.3091673
  48.2998553  60.1244913   5.1991673  47.4668553  60.3744913   5.1271673
  48.2438553  59.2844913   5.4281673  48.1688553  60.0374913   5.2221673
  37.5598553  57.1124913  10.3931673  37.7938553  56.5364913   9.7801673
  36.7178553  56.9314913  10.5341673  37.4698553  57.0004913  10.3231673
  45.1868553  64.7304913  12.8451673  46.0578553  64.6944913  12.8091673
  44.9678553  65.1504913  12.1131673  45.2838553  64.7864913  12.7321673
  34.9408553  70.5554913   4.0261673  34.8618553  69.7454913   3.7101673
  34.4968553  71.0424913   3.4541673  34.8638553  70.5074913   3.8951673
  32.5128553  72.7994913   7.6071673  33.0058553  72.7434913   8.3251673
  32.7008553  72.0664913   7.1721673  32.6138553  72.6824913   7.6491673
  41.9508553  36.8373833  75.7791313  41.7058553  37.3253833  75.0991313
  42.8138553  36.7643833  75.6791313  42.0418553  36.8983833  75.6641313
  41.7598553  43.7533833  80.4501313  41.2358553  44.3493833  80.8131313
  42.1568553  43.3853833  81.1341313  41.7408553  43.7873833  80.6051313
  31.6288553  47.8933833  75.9061313  31.1878553  48.0113833  76.6491313
  31.3458553  47.1183833  75.6211313  31.5218553  47.7963833  75.9741313
  47.9038553  51.1943833  73.4211313  48.6048553  50.6753833  73.4171313
  47.3168553  50.7493833  72.9521313  47.9208553  51.0513833  73.3511313
  31.3718553  41.6853833  72.4131313  30.5938553  41.8473833  72.0531313
  31.4108553  40.8143833  72.4351313  31.2628553  41.5803833  72.3631313
  34.5108553  46.9483833  71.0851313  34.1188553  46.5773833  70.3991313
  34.4308553  46.3503833  71.7141313  34.4408553  46.8053833  71.0761313
  44.4308553  44.8203833  77.1261313  44.5108553  44.8243833  76.2571313
  43.8468553  44.1883833  77.2751313  44.3558553  44.7273833  77.0201313
  34.1378553  48.5893833  74.9851313  34.7458553  48.4193833  75.5881313
  33.3868553  48.4493833  75.4061313  34.1168553  48.5433833  75.1361313
  38.4198553  37.9243833  74.9341313  38.3498553  38.6013833  74.3881313
  39.1608553  37.5363833  74.6851313  38.5188553  37.9673833  74.8161313
  33.0288553  51.6803833  71.0621313  33.4958553  51.7643833  70.3301313
  33.4838553  51.1023833  71.5311313  33.1648553  51.6073833  71.0231313
  33.0148553  45.1493833  76.3631313  32.5528553  44.7573833  75.7361313
  33.7148553  44.6363833  76.4551313  33.0498553  45.0163833  76.2841313
  35.0158553  43.2493833  76.3861313  35.8328553  43.0623833  76.6291313
  34.5388553  42.6353833  76.7821313  35.0658553  43.1313833  76.4811313
  39.2198553  49.2303833  78.9961313  39.5678553  48.4313833  79.0261313
  39.8848553  49.7343833  78.7411313  39.3698553  49.1863833  78.9631313
  39.2768553  48.6793833  75.2071313  39.6078553  48.0353833  75.6931313
  39.5168553  48.4683833  74.3961313  39.3608553  48.5533833  75.1591313
  35.6128553  38.3433833  75.6521313  35.3168553  38.8443833  75.0021313
  36.4798553  38.4213833  75.5951313  35.6968553  38.4293833  75.5481313
  38.5918553  37.4853833  77.8751313  38.6648553  38.3453833  78.0041313
  38.5538553  37.4103833  77.0071313  38.5968553  37.6013833  77.7661313
  31.4708553  42.9103833  79.3761313  31.2148553  43.7413833  79.3011313
  30.8068553  42.5273833  79.7931313  31.3348553  42.9763833  79.4271313
  31.3808553  52.6203833  77.2761313  30.7888553  53.1783833  76.9631313
  31.8068553  52.3513833  76.5641313  31.3568553  52.6623833  77.1251313
  37.2208553  50.4643833  74.7561313  36.6418553  50.1893833  75.3481313
  37.8448553  49.8553833  74.7811313  37.2278553  50.3343833  74.8471313
  43.3638553  52.7523833  72.2781313  44.0908553  53.2243833  72.3801313
  43.5928553  51.9583833  72.5581313  43.5058553  52.7053833  72.3351313
  41.5318553  53.1443833  74.2681313  41.7458553  53.6713833  74.9301313
  42.2988553  52.9703833  73.8891313  41.6768553  53.1963833  74.3101313
  34.4998553  37.7273833  79.8671313  33.9788553  37.0993833  79.5591313
  35.0908553  37.2903833  80.3381313  34.5108553  37.5693833  79.8911313
  32.9258553  51.2903833  75.2071313  33.5818553  50.7153833  75.2221313
  33.3148553  52.0393833  74.9861313  33.0808553  51.3153833  75.1771313
  48.6588553  40.3843833  76.4691313  48.3128553  41.0623833  76.8951313
  48.0228553  39.7863833  76.4851313  48.5138553  40.3963833  76.5341313
  33.7438553  49.7773833  78.7071313  34.1668553  49.4213833  78.0331313
  34.0678553  49.3553833  79.3991313  33.8538553  49.6623833  78.7101313
  36.9748553  52.6293833  78.0031313  37.8188553  52.7333833  77.8081313
  36.6778553  53.4473833  78.0711313  37.0558553  52.7653833  77.9841313
  40.7818553  42.0263833  76.0901313  41.0688553  41.7943833  75.3001313
  41.5138553  42.1053833  76.5591313  40.9318553  42.0033833  76.0431313
  45.5448553  54.3393833  72.6781313  46.2098553  54.1913833  72.1331313
  45.9048553  54.2563833  73.4681313  45.6968553  54.3053833  72.7141313
  40.3628553  50.5363833  71.0271313  40.1818553  51.0813833  71.6841313
  41.1288553  50.8263833  70.7261313  40.4488553  50.6603833  71.0801313
  43.8698553  38.4323833  72.0811313  44.4098553  37.7503833  72.1571313
  43.9318553  38.8303833  72.8551313  43.9588553  38.3903833  72.2071313
  31.8238553  39.6003833  74.6501313  31.7098553  38.7363833  74.6811313
  31.3488553  39.8943833  75.3201313  31.7368553  39.5163833  74.7531313
  41.1278553  40.8083833  73.3951313  40.6198553  40.1463833  73.1411313
  41.1798553  41.3123833  72.6851313  41.0608553  40.7853833  73.2531313
  41.1278553  37.7493833  73.2861313  40.6728553  37.3473833  72.6601313
  41.9008553  37.9043833  72.9111313  41.1748553  37.7133833  73.1381313
  47.9538553  54.1063833  76.6761313  47.4988553  54.8233833  76.8771313
  47.3398553  53.5353833  76.4341313  47.7958553  54.1283833  76.6701313
  39.7258553  40.1163833  77.8081313  39.7998553  40.6843833  77.1501313
  39.8468553  40.6083833  78.5181313  39.7538553  40.2733833  77.8161313
  44.9508553  49.9513833  76.2201313  45.6518553  49.4693833  76.4091313
  44.2908553  49.3823833  76.2651313  44.9568553  49.7963833  76.2541313
  34.3338553  35.9393833  76.1561313  34.8698553  36.6273833  76.1461313
  34.3368553  35.6653833  75.3281313  34.4128553  36.0003833  76.0321313
  37.2898553  46.3723833  80.1811313  37.4618553  46.1623833  81.0101313
  36.6348553  45.8383833  79.9651313  37.2188553  46.2623833  80.2721313
  44.7738553  36.2303833  76.5321313  44.8228553  35.9123833  77.3431313
  45.0968553  35.5863833  76.0391313  44.8288553  36.0883833  76.5791313
  34.7818553  39.7493833  77.8101313  35.0538553  39.3193833  77.1021313
  34.6058553  39.1133833  78.3811313  34.7958553  39.5923833  77.7901313
  34.6058553  47.1763833  77.3591313  35.4568553  47.0963833  77.1861313
  34.2488553  46.4943833  76.9471313  34.6788553  47.0633833  77.2721313
  33.3728553  53.9013833  78.5961313  32.6998553  53.4033833  78.3511313
  33.7758553  54.0863833  77.8451313  33.3328553  53.8553833  78.4491313
  32.9228553  40.8513833  80.8921313  33.7658553  41.0713833  80.8491313
  32.5338553  41.4243833  80.3611313  32.9898553  40.9683833  80.8071313
  36.9738553  47.1833833  75.5941313  37.6868553  47.6783833  75.6841313
  37.1958553  46.6163833  74.9681313  37.1118553  47.1723833  75.5151313
  49.5518553  38.8423833  71.0661313  48.8898553  38.2743833  71.0891313
  49.3588553  39.3543833  70.3861313  49.4258553  38.8343833  70.9691313
  31.1298553  48.8263833  78.9141313  30.4628553  49.3143833  79.1901313
  31.8098553  49.3713833  78.9431313  31.1318553  48.9783833  78.9591313
  31.1958553  45.5103833  74.0171313  31.0108553  44.6713833  74.1691313
  31.8548553  45.4743833  73.4471313  31.2658553  45.3813833  73.9551313
  47.5538553  38.4003833  73.3451313  48.2998553  37.9933833  73.5441313
  47.8168553  39.1153833  72.9201313  47.7028553  38.4463833  73.3121313
  41.4968553  50.8863833  77.9211313  40.9738553  51.5203833  77.6281313
  41.8068553  50.5223833  77.1921313  41.4648553  50.9263833  77.7701313
  31.3678553  49.6743833  73.5921313  31.9198553  50.2433833  73.9561313
  31.1358553  49.1593833  74.2571313  31.4148553  49.6823833  73.7441313
  35.5718553  48.6743833  80.6811313  36.0388553  48.9633833  81.3591313
  36.1438553  48.1963833  80.2271313  35.7258553  48.6463833  80.7141313
  44.0078553  40.6883833  78.4181313  44.3518553  40.8403833  79.2051313
  43.5548553  39.9503833  78.5311313  43.9918553  40.6013833  78.5511313
  31.1978553  48.1233833  71.2201313  31.9538553  47.6913833  71.2781313
  31.2128553  48.6553833  71.9111313  31.3118553  48.1383833  71.3311313
  32.1378553  46.3443833  79.2251313  32.5688553  46.2153833  78.4781313
  31.9328553  47.1923833  79.1991313  32.1708553  46.4503833  79.1111313
  38.4838553  39.9083833  72.8751313  38.4818553  39.7913833  72.0101313
  38.3028553  40.7563833  72.9671313  38.4568553  40.0163833  72.7611313
  36.2218553  49.8603833  77.5071313  36.3478553  50.7033833  77.6941313
  36.8898553  49.4613833  77.9031313  36.3398553  49.9263833  77.5931313
  34.8368553  42.7403833  72.5091313  34.7088553  42.2923833  73.2471313
  34.2548553  42.3983833  71.9571313  34.7318553  42.6233833  72.5371313
  35.0038553  44.5703833  79.1081313  34.2228553  44.5113833  78.7251313
  35.0758553  43.8183833  79.5451313  34.8988553  44.4513833  79.1161313
  45.3288553  42.0203833  80.9721313  44.6668553  42.3483833  81.4351313
  45.5158553  42.6543833  80.4031313  45.2588553  42.1623833  80.9561313
  43.5218553  39.9893833  74.4831313  44.0118553  40.7063833  74.4061313
  42.7318553  40.2503833  74.2201313  43.4778553  40.1333833  74.4331313
  40.1038553  41.4593833  80.2081313  40.5838553  42.1583833  80.4161313
  40.4768553  40.8123833  80.6591313  40.2298553  41.4673833  80.3051313
  47.2648553  48.4983833  76.4631313  47.6208553  48.1483833  77.1781313
  47.2568553  47.8373833  75.8931313  47.3168553  48.3483833  76.4841313
  43.3098553  51.5643833  80.3071313  42.7068553  51.2683833  79.7501313
  43.8548553  52.0163833  79.7981313  43.3008553  51.5873833  80.1491313
  43.3228553  48.4153833  79.7071313  42.5258553  48.6393833  79.9811313
  43.5808553  47.8213833  80.2921313  43.2428553  48.3603833  79.8341313
  37.2148553  53.2273833  74.1551313  37.0678553  52.4513833  74.5261313
  37.9038553  53.0803833  73.6401313  37.2948553  53.0903833  74.1341313
  36.8858553  36.9703833  72.1431313  36.9828553  36.8633833  73.0041313
  36.1778553  37.4763833  72.0781313  36.7958553  37.0293833  72.2611313
  39.5068553  52.7433833  72.5571313  40.1288553  52.9063833  73.1471313
  39.5428553  53.4343833  72.0251313  39.6038553  52.8693833  72.5661313
  34.0078553  45.2773833  73.3861313  34.3318553  44.4983833  73.1641313
  34.6538553  45.6453833  73.8411313  34.1508553  45.2163833  73.4201313
  31.0048553  36.9383833  74.3541313  31.1338553  36.2303833  73.8621313
  30.6378553  36.6203833  75.0791313  30.9698553  36.7863833  74.3891313
  40.6978553  44.6193833  74.8111313  40.7568553  45.2693833  75.3901313
  40.5088553  43.9233833  75.3021313  40.6788553  44.6123833  74.9691313
  45.9238553  48.9483833  80.6801313  45.4448553  49.2463833  80.0141313
  45.5678553  48.1723833  80.8581313  45.8008553  48.8773833  80.6081313
  35.1938553  39.1363833  71.3231313  34.6828553  39.1893833  70.6171313
  35.9778553  39.3763833  71.0271313  35.2338553  39.1793833  71.1751313
  39.9208553  46.6663833  79.2421313  39.0738553  46.4723833  79.3231313
  40.2448553  46.5013833  80.0351313  39.8428553  46.6133833  79.3711313
  36.6728553  53.3963833  70.1281313  37.1118553  52.6993833  70.4161313
  36.8798553  54.0203833  70.7011313  36.7688553  53.3853833  70.2551313
  33.7688553  46.3593833  81.5581313  34.4908553  46.8473833  81.5211313
  33.4988553  46.3293833  80.7291313  33.8358553  46.4273833  81.4301313
  36.9988553  41.5303833  78.2931313  37.8448553  41.3403833  78.3911313
  36.6288553  40.7533833  78.1551313  37.0688553  41.3873833  78.2871313
  49.6158553  53.1143833  72.6201313  50.3098553  52.6473833  72.3721313
  49.0768553  52.5163833  72.9571313  49.6388553  52.9563833  72.6331313
  31.8198553  42.8683833  74.9481313  32.3088553  42.5763833  75.6091313
  31.9488553  42.2753833  74.3211313  31.9108553  42.7373833  74.9531313
  36.3448553  44.3023833  70.4341313  35.7348553  43.8973833  70.9081313
  35.9588553  44.4203833  69.6611313  36.1978553  44.2593833  70.3901313
  48.1108553  45.9613833  79.2361313  47.8248553  46.3623833  79.9561313
  48.9708553  45.8993833  79.3631313  48.1958553  46.0113833  79.3611313
  37.7998553  42.7633833  73.1441313  38.0718553  43.5893833  73.2111313
  36.9368553  42.8383833  73.0481313  37.7128553  42.8963833  73.1391313
  31.2798553  38.7333833  79.6801313  31.3238553  39.0773833  78.8791313
  32.0348553  38.9703833  80.0471313  31.3978553  38.8193833  79.6161313
  49.2418553  51.5943833  79.7651313  49.5318553  51.8513833  78.9841313
  49.9368553  51.6903833  80.2841313  49.3878553  51.6463833  79.7261313
  45.8468553  50.1973833  71.7471313  46.1808553  49.3913833  71.7821313
  45.0918553  50.1253833  72.1771313  45.7848553  50.0673833  71.8161313
  46.3288553  42.0313833  77.4061313  45.5838553  41.7083833  77.7241313
  46.3308553  42.8573833  77.6861313  46.2188553  42.1053833  77.4941313
  39.6828553  53.0383833  77.1731313  40.2288553  53.7173833  77.2271313
  39.3328553  53.1203833  76.3781313  39.7118553  53.1513833  77.0631313
  37.8658553  51.2663833  80.5621313  37.2418553  51.8483833  80.3801313
  38.1138553  50.9803833  79.7761313  37.8098553  51.3103833  80.4191313
  47.9468553  42.5963833  71.3941313  48.3248553  43.2733833  70.9941313
  47.1048553  42.8203833  71.4251313  47.8778553  42.7293833  71.3391313
  35.3898553  42.1093833  80.6271313  35.8298553  42.0063833  79.8811313
  35.9348553  41.7963833  81.2321313  35.5348553  42.0483833  80.6061313
  45.6418553  42.1953833  74.7691313  45.8488553  41.9943833  75.5931313
  46.3978553  42.4633833  74.4271313  45.7838553  42.2053833  74.8401313
  38.9368553  37.0943833  80.6741313  38.1108553  36.9453833  80.9111313
  38.8968553  37.1293833  79.8031313  38.8088553  37.0773833  80.5801313
  46.6638553  38.2783833  76.2431313  45.9498553  37.8073833  76.4141313
  46.5018553  38.6193833  75.4571313  46.5348553  38.2593833  76.1521313
  47.1068553  46.2223833  74.6231313  47.5828553  45.4933833  74.5751313
  46.2858553  45.9363833  74.5471313  47.0558553  46.0723833  74.6041313
  34.5658553  40.2363833  73.9341313  34.6918553  39.9073833  73.1361313
  33.7538553  39.9873833  74.1331313  34.4648553  40.1513833  73.8461313
  43.3228553  47.3893833  76.9781313  43.3988553  47.7303833  77.7771313
  43.4918553  46.5423833  77.0991313  43.3588553  47.3143833  77.1141313
  40.8448553  46.6633833  76.5431313  40.5468553  46.3483833  77.3001313
  41.5398553  47.1363833  76.7781313  40.9038553  46.6863833  76.6901313
  44.7738553  53.6193833  79.0731313  44.3228553  54.2623833  79.4521313
  45.4818553  53.5403833  79.5781313  44.8118553  53.7023833  79.2041313
  47.8768553  43.3353833  74.0651313  47.9798553  43.2773833  73.2011313
  48.6178553  43.0033833  74.3831313  48.0018553  43.2783833  73.9841313
  41.7968553  50.3003833  75.1721313  41.5918553  51.1333833  75.0131313
  41.0218553  49.9183833  75.2941313  41.6518553  50.3673833  75.1671313
  33.1708553  41.8573833  70.4671313  32.4988553  41.8713833  71.0231313
  33.2658553  41.0093833  70.2831313  33.0858553  41.7343833  70.5221313
  41.8518553  38.4713833  78.0571313  41.1518553  38.9893833  78.0011313
  41.8898553  38.0913833  77.2731313  41.7538553  38.4923833  77.9331313
  37.1588553  50.5623833  71.5811313  37.5998553  50.6423833  72.3291313
  36.3538553  50.3463833  71.8391313  37.1048553  50.5423833  71.7301313
  45.4498553  38.9873833  80.8571313  46.3048553  39.0863833  81.0021313
  45.0808553  39.5403833  81.4221313  45.5218553  39.0843833  80.9621313
  45.7538553  44.2673833  79.3481313  46.4198553  44.8083833  79.5081313
  45.4088553  44.5783833  78.6091313  45.8008553  44.3933833  79.2631313
  46.0668553  52.3333833  75.1551313  45.8928553  51.6793833  75.7051313
  46.7798553  52.0623833  74.7321313  46.1468553  52.1963833  75.1741313
  34.4878553  49.6323833  72.1821313  34.2438553  49.3253833  72.9621313
  34.4548553  48.9293833  71.6661313  34.4468553  49.4833833  72.2211313
  37.3068553  47.8773833  70.9251313  36.4888553  47.6093833  71.0651313
  37.2788553  48.7293833  71.1101313  37.1818553  47.9643833  70.9731313
  41.0098553  38.9383833  81.0581313  40.2728553  38.4843833  81.1711313
  41.5808553  38.5363833  81.5811313  40.9848553  38.8113833  81.1521313
  39.3088553  36.5193833  70.8891313  39.3868553  36.7663833  70.0561313
  38.5658553  36.8963833  71.1471313  39.2108553  36.6113833  70.8041313
  46.6588553  51.6853833  81.1011313  47.1858553  51.6023833  80.4101313
  46.2678553  50.9073833  81.1551313  46.6788553  51.5583833  81.0071313
  43.1728553  37.1293833  80.3091313  43.8428553  37.6733833  80.4361313
  42.6698553  37.5533833  79.7361313  43.1978553  37.2723833  80.2431313
  42.5318553  42.9373833  77.8021313  43.0828553  42.3303833  78.1021313
  42.1068553  43.2003833  78.5171313  42.5508553  42.8863833  77.9511313
  32.7798553  41.5873833  77.2881313  32.4118553  41.8893833  78.0191313
  33.3138553  40.9583833  77.5721313  32.8038553  41.5393833  77.4381313
  44.5018553  44.7683833  74.3641313  44.5698553  43.9183833  74.5451313
  43.6788553  44.8543833  74.0861313  44.3898553  44.6553833  74.3501313
  34.2538553  53.2623833  73.5741313  34.1088553  53.4183833  72.7281313
  35.1198553  53.3413833  73.6521313  34.3608553  53.2973833  73.4611313
  38.4208553  45.6593833  73.3021313  38.5208553  45.7983833  72.4471313
  39.2388553  45.5993833  73.5981313  38.5558553  45.6703833  73.2191313
  47.5808553  53.7233833  70.7821313  48.2178553  53.5893833  71.3631313
  47.2398553  52.9293833  70.6651313  47.6248553  53.5863833  70.8501313
  43.6558553  49.9883833  73.1041313  43.4048553  49.8603833  73.9301313
  43.3388553  49.2933833  72.6831313  43.5718553  49.8673833  73.1641313
  48.2998553  41.6463833  81.2241313  47.4668553  41.8963833  81.1521313
  48.2438553  40.8063833  81.4531313  48.1688553  41.5593833  81.2471313
  34.9408553  52.0773833  80.0511313  34.8618553  51.2673833  79.7351313
  34.4968553  52.5643833  79.4791313  34.8638553  52.0293833  79.9201313
  38.4198553  37.9243833  55.9278903  38.3498553  38.6013833  55.3818903
  39.1608553  37.5363833  55.6788903  38.5188553  37.9673833  55.8098903
  35.6128553  38.3433833  56.6458903  35.3168553  38.8443833  55.9958903
  36.4798553  38.4213833  56.5888903  35.6968553  38.4293833  56.5418903
  45.8028553  35.7703833  66.6538903  45.6448553  36.5393833  66.2718903
  45.0308553  35.5503833  66.9978903  45.6648553  35.8513833  66.6488903
  31.4708553  42.9103833  60.3698903  31.2148553  43.7413833  60.2948903
  30.8068553  42.5273833  60.7868903  31.3348553  42.9763833  60.4208903
  34.4998553  37.7273833  60.8608903  33.9788553  37.0993833  60.5528903
  35.0908553  37.2903833  61.3318903  34.5108553  37.5693833  60.8848903
  37.8058553  39.8603833  70.1588903  37.9228553  39.4063833  69.4228903
  38.0938553  40.6583833  69.9558903  37.8658553  39.9113833  70.0198903
  33.5388553  39.4573833  69.1428903  32.7608553  39.0673833  69.0708903
  34.0298553  39.0453833  68.5518903  33.4958553  39.3383833  69.0448903
  40.1878553  37.1003833  68.3108903  40.3658553  36.2913833  68.0358903
  40.0448553  37.5413833  67.5718903  40.1928553  37.0463833  68.1608903
  30.8868553  40.0053833  66.7288903  30.8828553  40.5923833  67.3748903
  31.4808553  40.3173833  66.1718903  30.9738553  40.1383833  66.7418903
  31.8238553  39.6003833  55.6438903  31.7098553  38.7363833  55.6748903
  31.3488553  39.8943833  56.3138903  31.7368553  39.5163833  55.7468903
  34.3338553  35.9393833  57.1498903  34.8698553  36.6273833  57.1398903
  34.3368553  35.6653833  56.3218903  34.4128553  36.0003833  57.0258903
  30.8608553  50.6813833  69.9758903  31.6168553  51.0303833  70.2338903
  31.0378553  49.8283833  69.9188903  30.9988553  50.6063833  70.0058903
  32.9228553  40.8513833  61.8858903  33.7658553  41.0713833  61.8428903
  32.5338553  41.4243833  61.3548903  32.9898553  40.9683833  61.8008903
  49.7038553  51.9533833  67.2758903  49.0218553  52.2633833  66.8288903
  49.3348553  51.4953833  67.9208903  49.5478553  51.9313833  67.3048903
  38.4838553  39.9083833  53.8688903  38.4818553  39.7913833  53.0038903
  38.3028553  40.7563833  53.9608903  38.4568553  40.0163833  53.7548903
  34.3518553  43.3433833  68.3628903  33.8158553  42.8373833  68.8308903
  34.3718553  42.9533833  67.5828903  34.2748553  43.2103833  68.3168903
  34.8368553  42.7403833  53.5028903  34.7088553  42.2923833  54.2408903
  34.2548553  42.3983833  52.9508903  34.7318553  42.6233833  53.5308903
  35.4338553  44.3073833  63.5698903  35.4588553  43.6323833  63.0188903
  34.7878553  44.8033833  63.2578903  35.3428553  44.2803833  63.4428903
  41.9738553  37.9263833  65.3948903  42.1228553  37.1013833  65.1518903
  42.3528553  37.9813833  66.1788903  42.0518553  37.8123833  65.4748903
  33.2328553  45.6623833  69.1288903  33.1958553  46.1633833  68.4148903
  33.5638553  44.9103833  68.8338903  33.2758553  45.6243833  68.9798903
  36.8858553  36.9703833  53.1368903  36.9828553  36.8633833  53.9978903
  36.1778553  37.4763833  53.0718903  36.7958553  37.0293833  53.2548903
  47.6148553  36.7113833  68.5338903  46.9778553  36.3113833  68.0918903
  47.6408553  36.2803833  69.2918903  47.5248553  36.5893833  68.5798903
  31.0048553  36.9383833  55.3478903  31.1338553  36.2303833  54.8558903
  30.6378553  36.6203833  56.0728903  30.9698553  36.7863833  55.3828903
  35.1938553  39.1363833  52.3168903  34.6828553  39.1893833  51.6108903
  35.9778553  39.3763833  52.0208903  35.2338553  39.1793833  52.1688903
  33.1638553  47.4113833  66.8298903  32.7428553  46.8933833  66.2688903
  32.8118553  48.1973833  66.6868903  33.0498553  47.4513833  66.7258903
  37.7998553  42.7633833  54.1378903  38.0718553  43.5893833  54.2048903
  36.9368553  42.8383833  54.0418903  37.7128553  42.8963833  54.1328903
  31.2798553  38.7333833  60.6738903  31.3238553  39.0773833  59.8728903
  32.0348553  38.9703833  61.0408903  31.3978553  38.8193833  60.6098903
  35.8818553  48.1723833  66.8458903  35.0758553  47.8823833  67.0128903
  35.7928553  49.0403833  66.8518903  35.7498553  48.2573833  66.8708903
  37.1288553  41.2483833  65.6798903  37.2898553  40.5043833  66.1068903
  37.0838553  40.9993833  64.8448903  37.1458553  41.1013833  65.6198903
  38.8808553  37.0563833  65.5598903  39.5858553  37.3763833  65.1578903
  39.1218553  36.2493833  65.7868903  39.0198553  36.9843833  65.5338903
  31.5018553  37.4923833  67.7028903  31.3618553  38.2873833  67.3718903
  30.7158553  37.2493833  67.9918903  31.3648553  37.5743833  67.6968903
  34.5658553  40.2363833  54.9278903  34.6918553  39.9073833  54.1298903
  33.7538553  39.9873833  55.1268903  34.4648553  40.1513833  54.8398903
  33.1718553  53.8393833  67.2148903  32.5178553  53.2703833  67.3128903
  32.7968553  54.6123833  67.3658903  33.0198553  53.8693833  67.2518903
  34.5428553  42.2473833  65.3438903  34.9178553  42.8663833  64.8568903
  35.2168553  41.7733833  65.6288903  34.6978553  42.2693833  65.3138903
  32.3178553  40.6953833  64.6188903  32.3948553  40.5263833  63.7658903
  33.0638553  41.1013833  64.8158903  32.4388553  40.7303833  64.5218903
  34.8718553  38.1053833  67.0298903  34.7908553  37.2613833  67.2358903
  34.5578553  38.1493833  66.2168903  34.8138553  37.9873833  66.9398903
  31.7148553  45.9213833  64.8428903  32.0348553  46.1403833  64.0618903
  31.6148553  45.0563833  64.7878903  31.7468553  45.8263833  64.7198903
  42.8578553  38.2813833  68.1968903  42.9498553  38.9933833  68.6908903
  42.2208553  37.8363833  68.5938903  42.7768553  38.3203833  68.3288903
  36.4778553  45.2133833  66.2278903  36.0818553  45.9873833  66.3028903
  36.0718553  44.8403833  65.5518903  36.3598553  45.2723833  66.1388903
  36.9068553  38.1903833  63.6778903  36.0428553  38.2743833  63.7578903
  37.1268553  37.6763833  64.3468903  36.8118553  38.1273833  63.7888903
  43.2758553  54.0003833  68.0858903  42.5228553  53.9823833  67.6448903
  43.4438553  54.8523833  68.1698903  43.1898553  54.1233833  68.0328903
  39.3088553  36.5193833  51.8828903  39.3868553  36.7663833  51.0498903
  38.5658553  36.8963833  52.1408903  39.2108553  36.6113833  51.7978903
  34.1268553  38.2733833  64.3258903  33.7838553  37.5063833  64.0918903
  33.4318553  38.7973833  64.3898903  33.9738553  38.2373833  64.3008903
  34.5408553  52.0063833  68.8638903  35.1358553  52.4373833  69.3358903
  34.1768553  52.6303833  68.3748903  34.5748553  52.1623833  68.8608903
  32.7798553  41.5873833  58.2818903  32.4118553  41.8893833  59.0128903
  33.3138553  40.9583833  58.5658903  32.8038553  41.5393833  58.4318903
  37.5598553  38.6343833  67.4118903  37.7938553  38.0583833  66.7988903
  36.7178553  38.4533833  67.5528903  37.4698553  38.5223833  67.3418903
  47.9038553  51.1943833  16.4024083  48.6048553  50.6753833  16.3984083
  47.3168553  50.7493833  15.9334083  47.9208553  51.0513833  16.3324083
  31.3718553  41.6853833  15.3944083  30.5938553  41.8473833  15.0344083
  31.4108553  40.8143833  15.4164083  31.2628553  41.5803833  15.3444083
  43.3638553  52.7523833  15.2594083  44.0908553  53.2243833  15.3614083
  43.5928553  51.9583833  15.5394083  43.5058553  52.7053833  15.3164083
  45.5448553  54.3393833  15.6594083  46.2098553  54.1913833  15.1144083
  45.9048553  54.2563833  16.4494083  45.6968553  54.3053833  15.6954083
  40.3628553  50.5363833  14.0084083  40.1818553  51.0813833  14.6654083
  41.1288553  50.8263833  13.7074083  40.4488553  50.6603833  14.0614083
  31.8238553  39.6003833  17.6314083  31.7098553  38.7363833  17.6624083
  31.3488553  39.8943833  18.3014083  31.7368553  39.5163833  17.7344083
  47.4698553  47.4443833  15.0094083  47.5888553  47.1573833  15.8244083
  48.2768553  47.4653833  14.6794083  47.6058553  47.4053833  15.0814083
  45.3648553  43.9813833  14.5944083  45.1448553  44.7123833  14.1724083
  44.9168553  44.0323833  15.3414083  45.2658553  44.0963833  14.6424083
  31.0048553  36.9383833  17.3354083  31.1338553  36.2303833  16.8434083
  30.6378553  36.6203833  18.0604083  30.9698553  36.7863833  17.3704083
  35.1938553  39.1363833  14.3044083  34.6828553  39.1893833  13.5984083
  35.9778553  39.3763833  14.0084083  35.2338553  39.1793833  14.1564083
  36.6728553  53.3963833  13.1094083  37.1118553  52.6993833  13.3974083
  36.8798553  54.0203833  13.6824083  36.7688553  53.3853833  13.2364083
  49.6158553  53.1143833  15.6014083  50.3098553  52.6473833  15.3534083
  49.0768553  52.5163833  15.9384083  49.6388553  52.9563833  15.6144083
  36.3448553  44.3023833  13.4154083  35.7348553  43.8973833  13.8894083
  35.9588553  44.4203833  12.6424083  36.1978553  44.2593833  13.3714083
  45.8468553  50.1973833  14.7284083  46.1808553  49.3913833  14.7634083
  45.0918553  50.1253833  15.1584083  45.7848553  50.0673833  14.7974083
  43.2208553  48.0723833  14.1314083  43.9048553  47.5583833  13.9624083
  42.8038553  48.1183833  13.3664083  43.2598553  48.0033833  13.9934083
  39.4598553  46.0423833  13.4584083  38.6548553  45.8653833  13.1734083
  39.4268553  46.8933833  13.6504083  39.3358553  46.1413833  13.4454083
  47.1068553  46.2223833  17.6044083  47.5828553  45.4933833  17.5564083
  46.2858553  45.9363833  17.5284083  47.0558553  46.0723833  17.5854083
  33.1708553  41.8573833  13.4484083  32.4988553  41.8713833  14.0044083
  33.2658553  41.0093833  13.2644083  33.0858553  41.7343833  13.5034083
  39.3088553  36.5193833  13.8704083  39.3868553  36.7663833  13.0374083
  38.5658553  36.8963833  14.1284083  39.2108553  36.6113833  13.7854083
  47.5808553  53.7233833  13.7634083  48.2178553  53.5893833  14.3444083
  47.2398553  52.9293833  13.6464083  47.6248553  53.5863833  13.8314083
  43.6558553  49.9883833  16.0854083  43.4048553  49.8603833  16.9114083
  43.3388553  49.2933833  15.6644083  43.5718553  49.8673833  16.1454083
  41.7598553  43.7533833   4.4251673  41.2358553  44.3493833   4.7881673
  42.1568553  43.3853833   5.1091673  41.7408553  43.7873833   4.5801673
  31.5688553  50.6283833   6.1361673  31.6978553  50.3483833   6.9521673
  30.9588553  50.0873833   5.8271673  31.4978553  50.5073833   6.2111673
  38.1428553  48.1533833  11.2031673  37.9068553  48.1503833  12.0431673
  37.3948553  48.0053833  10.7791673  37.9968553  48.1303833  11.2641673
  37.5228553  40.7593833   5.6851673  38.2008553  40.7773833   5.1361673
  37.4778553  39.9233833   5.9301673  37.6158553  40.6383833   5.6401673
  38.1248553  51.3453833   8.4661673  38.2628553  52.1053833   8.0591673
  38.9158553  50.9803833   8.4931673  38.2618553  51.4043833   8.4101673
  39.2198553  49.2303833   2.9711673  39.5678553  48.4313833   3.0011673
  39.8848553  49.7343833   2.7161673  39.3698553  49.1863833   2.9381673
  41.2448553  42.8103833  10.5211673  40.3968553  42.7113833  10.3431673
  41.2738553  43.5553833  10.9751673  41.1238553  42.9063833  10.5621673
  45.8028553  35.7703833   9.6351673  45.6448553  36.5393833   9.2531673
  45.0308553  35.5503833   9.9791673  45.6648553  35.8513833   9.6301673
  31.4708553  42.9103833   3.3511673  31.2148553  43.7413833   3.2761673
  30.8068553  42.5273833   3.7681673  31.3348553  42.9763833   3.4021673
  34.4998553  37.7273833   3.8421673  33.9788553  37.0993833   3.5341673
  35.0908553  37.2903833   4.3131673  34.5108553  37.5693833   3.8661673
  37.8058553  39.8603833  13.1401673  37.9228553  39.4063833  12.4041673
  38.0938553  40.6583833  12.9371673  37.8658553  39.9113833  13.0011673
  43.9708553  53.1543833   6.5481673  44.7148553  53.6103833   6.5381673
  43.8498553  52.9403833   5.7111673  44.0628553  53.1903833   6.4231673
  33.5388553  39.4573833  12.1241673  32.7608553  39.0673833  12.0521673
  34.0298553  39.0453833  11.5331673  33.4958553  39.3383833  12.0261673
  33.7438553  49.7773833   2.6821673  34.1668553  49.4213833   2.0081673
  34.0678553  49.3553833   3.3741673  33.8538553  49.6623833   2.6851673
  36.9748553  52.6293833   1.9781673  37.8188553  52.7333833   1.7831673
  36.6778553  53.4473833   2.0461673  37.0558553  52.7653833   1.9591673
  40.1878553  37.1003833  11.2921673  40.3658553  36.2913833  11.0171673
  40.0448553  37.5413833  10.5531673  40.1928553  37.0463833  11.1421673
  35.9728553  53.8483833   7.7181673  36.2648553  53.7813833   8.5381673
  35.3468553  53.2433833   7.6731673  35.9238553  53.7493833   7.8331673
  48.3338553  38.7073833   5.8131673  49.0908553  38.7793833   5.3851673
  48.3968553  37.9343833   6.2121673  48.4548553  38.6043833   5.8081673
  30.8868553  40.0053833   9.7101673  30.8828553  40.5923833  10.3561673
  31.4808553  40.3173833   9.1531673  30.9738553  40.1383833   9.7231673
  43.2248553  50.3393833  10.2521673  43.1908553  50.7213833  11.0361673
  44.0788553  50.2973833  10.0811673  43.3458553  50.3893833  10.3431673
  33.9658553  52.0103833   6.8401673  33.2678553  51.5023833   6.9661673
  34.2258553  51.8053833   6.0321673  33.9008553  51.9053833   6.7391673
  41.6768553  53.5033833   7.7501673  42.4448553  53.4233833   7.3441673
  41.0938553  53.3823833   7.1121673  41.7038553  53.4733833   7.5961673
  35.3268553  50.8613833   9.4071673  36.1678553  50.9243833   9.1851673
  35.2898553  51.2583833  10.1831673  35.4458553  50.9293833   9.4891673
  37.2898553  46.3723833   4.1561673  37.4618553  46.1623833   4.9851673
  36.6348553  45.8383833   3.9401673  37.2188553  46.2623833   4.2471673
  43.5178553  40.2863833   7.6711673  43.4228553  40.6053833   8.4771673
  42.9248553  39.6473833   7.6331673  43.4158553  40.2383833   7.7851673
  38.0398553  46.3103833   6.7461673  38.0928553  47.1573833   6.9481673
  37.7548553  45.9403833   7.4831673  38.0058553  46.3803833   6.8841673
  44.2168553  47.0053833   5.8761673  43.7028553  46.5933833   6.4471673
  44.0908553  47.8493833   6.0571673  44.1228553  47.0693833   5.9871673
  47.2378553  40.4663833   8.8151673  48.0098553  40.2413833   9.1521673
  46.7628553  40.6833833   9.5151673  47.2818553  40.4653833   8.9681673
  33.3728553  53.9013833   2.5711673  32.6998553  53.4033833   2.3261673
  33.7758553  54.0863833   1.8201673  33.3328553  53.8553833   2.4241673
  32.9228553  40.8513833   4.8671673  33.7658553  41.0713833   4.8241673
  32.5338553  41.4243833   4.3361673  32.9898553  40.9683833   4.7821673
  49.7038553  51.9533833  10.2571673  49.0218553  52.2633833   9.8101673
  49.3348553  51.4953833  10.9021673  49.5478553  51.9313833  10.2861673
  31.1298553  48.8263833   2.8891673  30.4628553  49.3143833   3.1651673
  31.8098553  49.3713833   2.9181673  31.1318553  48.9783833   2.9341673
  49.8748553  43.2203833   7.5971673  50.0898553  42.4203833   7.3211673
  49.0248553  43.2803833   7.4081673  49.7808553  43.1113833   7.5281673
  35.5718553  48.6743833   4.6561673  36.0388553  48.9633833   5.3341673
  36.1438553  48.1963833   4.2021673  35.7258553  48.6463833   4.6891673
  44.0078553  40.6883833   2.3931673  44.3518553  40.8403833   3.1801673
  43.5548553  39.9503833   2.5061673  43.9918553  40.6013833   2.5261673
  32.1378553  46.3443833   3.2001673  32.5688553  46.2153833   2.4531673
  31.9328553  47.1923833   3.1741673  32.1708553  46.4503833   3.0861673
  47.5378553  52.3353833   8.3471673  46.8668553  52.8493833   8.5651673
  47.6008553  52.4353833   7.4831673  47.4478553  52.4263833   8.2521673
  34.3518553  43.3433833  11.3441673  33.8158553  42.8373833  11.8121673
  34.3718553  42.9533833  10.5641673  34.2748553  43.2103833  11.2981673
  35.0038553  44.5703833   3.0831673  34.2228553  44.5113833   2.7001673
  35.0758553  43.8183833   3.5201673  34.8988553  44.4513833   3.0911673
  35.4338553  44.3073833   6.5511673  35.4588553  43.6323833   6.0001673
  34.7878553  44.8033833   6.2391673  35.3428553  44.2803833   6.4241673
  45.3288553  42.0203833   4.9471673  44.6668553  42.3483833   5.4101673
  45.5158553  42.6543833   4.3781673  45.2588553  42.1623833   4.9311673
  39.5338553  53.0843833   5.9431673  39.2568553  52.4433833   5.4201673
  39.3258553  53.8103833   5.5051673  39.4628553  53.0973833   5.8011673
  41.9738553  37.9263833   8.3761673  42.1228553  37.1013833   8.1331673
  42.3528553  37.9813833   9.1601673  42.0518553  37.8123833   8.4561673
  44.8358553  47.8673833  10.3681673  45.3198553  48.5853833  10.4661673
  45.2298553  47.4403833   9.7171673  44.9658553  47.9103833  10.2861673
  39.1318553  50.7123833  11.5451673  39.4858553  50.5343833  12.3221673
  38.6958553  49.9833833  11.3461673  39.1198553  50.5783833  11.6311673
  40.1038553  41.4593833   4.1831673  40.5838553  42.1583833   4.3911673
  40.4768553  40.8123833   4.6341673  40.2298553  41.4673833   4.2801673
  43.3098553  51.5643833   4.2821673  42.7068553  51.2683833   3.7251673
  43.8548553  52.0163833   3.7731673  43.3008553  51.5873833   4.1241673
  43.3228553  48.4153833   3.6821673  42.5258553  48.6393833   3.9561673
  43.5808553  47.8213833   4.2671673  43.2428553  48.3603833   3.8091673
  46.5828553  46.4133833   8.5281673  46.6378553  46.5383833   7.6661673
  47.3358553  46.7333833   8.8301673  46.7018553  46.4783833   8.4451673
  42.7738553  51.7623833  12.8051673  42.9378553  52.0453833  13.6141673
  43.0368553  52.4233833  12.3001673  42.8368553  51.9023833  12.8501673
  42.3138553  46.2193833   8.1281673  42.1588553  46.8293833   8.7321673
  42.8478553  45.6613833   8.5341673  42.3698553  46.2273833   8.2771673
  45.9238553  48.9483833   4.6551673  45.4448553  49.2463833   3.9891673
  45.5678553  48.1723833   4.8331673  45.8008553  48.8773833   4.5831673
  39.9208553  46.6663833   3.2171673  39.0738553  46.4723833   3.2981673
  40.2448553  46.5013833   4.0101673  39.8428553  46.6133833   3.3461673
  33.7688553  46.3593833   5.5331673  34.4908553  46.8473833   5.4961673
  33.4988553  46.3293833   4.7041673  33.8358553  46.4273833   5.4051673
  36.9988553  41.5303833   2.2681673  37.8448553  41.3403833   2.3661673
  36.6288553  40.7533833   2.1301673  37.0688553  41.3873833   2.2621673
  46.8548553  45.8903833   5.7741673  46.8478553  45.1143833   6.1721673
  46.0138553  46.1243833   5.7671673  46.7298553  45.8103833   5.8321673
  33.1638553  47.4113833   9.8111673  32.7428553  46.8933833   9.2501673
  32.8118553  48.1973833   9.6681673  33.0498553  47.4513833   9.7071673
  48.1108553  45.9613833   3.2111673  47.8248553  46.3623833   3.9311673
  48.9708553  45.8993833   3.3381673  48.1958553  46.0113833   3.3361673
  45.7728553  39.8853833  11.7511673  45.2478553  40.3443833  12.2751673
  45.4118553  39.0903833  11.7451673  45.6418553  39.8353833  11.8271673
  31.2798553  38.7333833   3.6551673  31.3238553  39.0773833   2.8541673
  32.0348553  38.9703833   4.0221673  31.3978553  38.8193833   3.5911673
  49.2418553  51.5943833   3.7401673  49.5318553  51.8513833   2.9591673
  49.9368553  51.6903833   4.2591673  49.3878553  51.6463833   3.7011673
  44.2648553  43.4543833  11.8271673  44.3378553  43.5583833  12.6901673
  43.6308553  44.0123833  11.6061673  44.1818553  43.5523833  11.9221673
  46.5328553  43.7733833  10.1921673  46.8518553  44.5593833  10.3951673
  46.1628553  43.5033833  10.9351673  46.5258553  43.8493833  10.3321673
  49.2308553  44.3153833  12.9271673  49.1788553  43.9743833  12.1261673
  49.9678553  44.7823833  12.9051673  49.3318553  44.3343833  12.8051673
  48.7688553  47.9913833   9.1331673  49.3968553  47.4423833   8.8771673
  48.7078553  48.5563833   8.4711673  48.8528553  47.9943833   8.9971673
  37.9028553  49.2223833   6.4291673  37.6048553  49.8143833   6.9961673
  37.9578553  49.6643833   5.6801673  37.8668553  49.3753833   6.4021673
  35.8818553  48.1723833   9.8271673  35.0758553  47.8823833   9.9941673
  35.7928553  49.0403833   9.8331673  35.7498553  48.2573833   9.8521673
  45.2408553  38.3613833   8.8421673  45.9848553  38.8133833   8.7791673
  44.6748553  38.8313833   8.3731673  45.2678553  38.4983833   8.7641673
  40.4188553  45.6453833   5.9201673  40.8948553  46.0193833   6.5481673
  39.5958553  45.7793833   6.1791673  40.3678553  45.7203833   6.0511673
  37.1288553  41.2483833   8.6611673  37.2898553  40.5043833   9.0881673
  37.0838553  40.9993833   7.8261673  37.1458553  41.1013833   8.6011673
  46.5258553  36.3413833   6.5121673  46.2458553  37.1663833   6.4681673
  47.2418553  36.3943833   7.0081673  46.5908553  36.4713833   6.5791673
  38.8808553  37.0563833   8.5411673  39.5858553  37.3763833   8.1391673
  39.1218553  36.2493833   8.7681673  39.0198553  36.9843833   8.5151673
  37.8658553  51.2663833   4.5371673  37.2418553  51.8483833   4.3551673
  38.1138553  50.9803833   3.7511673  37.8098553  51.3103833   4.3941673
  42.1748553  47.9003833  11.5261673  42.9318553  48.1863833  11.2001673
  41.6278553  47.9523833  10.8481673  42.2058553  47.9503833  11.3771673
  46.0838553  50.4503833  10.0301673  46.4298553  50.7203833  10.7841673
  46.3778553  51.0323833   9.4501673  46.1788553  50.5763833  10.0561673
  35.3898553  42.1093833   4.6021673  35.8298553  42.0063833   3.8561673
  35.9348553  41.7963833   5.2071673  35.5348553  42.0483833   4.5811673
  43.4058553  41.2113833  10.1941673  42.7578553  41.6813833  10.5421673
  43.9708553  41.1223833  10.8531673  43.3938553  41.2673833  10.3431673
  43.0938553  42.7483833   6.4921673  43.3958553  43.1683833   7.1951673
  43.1298553  41.9083833   6.7241673  43.1438553  42.6863833   6.6301673
  40.5188553  52.9153833  10.4171673  40.9968553  52.3153833  10.0011673
  40.1678553  52.4723833  11.0821673  40.5378553  52.7613833  10.4541673
  38.9368553  37.0943833   4.6491673  38.1108553  36.9453833   4.8861673
  38.8968553  37.1293833   3.7781673  38.8088553  37.0773833   4.5551673
  40.5778553  48.1343833   9.4371673  39.7828553  48.0703833   9.7881673
  40.6488553  48.9813833   9.2421673  40.4708553  48.2493833   9.4601673
  31.5018553  37.4923833  10.6841673  31.3618553  38.2873833  10.3531673
  30.7158553  37.2493833  10.9731673  31.3648553  37.5743833  10.6781673
  36.4078553  54.3413833   4.7541673  36.4188553  54.4003833   5.6241673
  35.9828553  53.5943833   4.6041673  36.3468553  54.2393833   4.8601673
  41.0668553  50.7813833   8.5451673  41.7538553  50.6673833   9.0701673
  41.2008553  51.5723833   8.2011673  41.1878553  50.8813833   8.5721673
  49.2428553  43.3903833  10.3561673  48.3878553  43.2683833  10.4821673
  49.3958553  42.9953833   9.5931673  49.1388553  43.3133833  10.2621673
  43.7558553  44.0553833   8.9321673  43.5008553  43.3363833   9.3541673
  44.5768553  44.1713833   9.2021673  43.8398553  43.9663833   9.0341673
  33.1718553  53.8393833  10.1961673  32.5178553  53.2703833  10.2941673
  32.7968553  54.6123833  10.3471673  33.0198553  53.8693833  10.2331673
  41.6898553  45.2453833  12.1191673  42.0128553  45.9313833  11.6871673
  40.9858553  45.5683833  12.5211673  41.6328553  45.3943833  12.1141673
  44.7738553  53.6193833   3.0481673  44.3228553  54.2623833   3.4271673
  45.4818553  53.5403833   3.5531673  44.8118553  53.7023833   3.1791673
  41.4748553  48.7093833   5.9781673  40.7808553  49.1113833   6.3211673
  42.1518553  49.1423833   6.3171673  41.4718553  48.8323833   6.0791673
  46.8518553  51.3023833  12.5581673  47.6278553  50.9123833  12.6411673
  46.3828553  50.9663833  13.2131673  46.8968553  51.1953833  12.6671673
  34.5428553  42.2473833   8.3251673  34.9178553  42.8663833   7.8381673
  35.2168553  41.7733833   8.6101673  34.6978553  42.2693833   8.2951673
  32.3178553  40.6953833   7.6001673  32.3948553  40.5263833   6.7471673
  33.0638553  41.1013833   7.7971673  32.4388553  40.7303833   7.5031673
  34.8718553  38.1053833  10.0111673  34.7908553  37.2613833  10.2171673
  34.5578553  38.1493833   9.1981673  34.8138553  37.9873833   9.9211673
  46.9788553  43.4813833   7.3961673  46.9768553  42.6183833   7.5201673
  47.0458553  43.8053833   8.2031673  46.9888553  43.4013833   7.5331673
  31.7148553  45.9213833   7.8241673  32.0348553  46.1403833   7.0431673
  31.6148553  45.0563833   7.7691673  31.7468553  45.8263833   7.7011673
  42.8578553  38.2813833  11.1781673  42.9498553  38.9933833  11.6721673
  42.2208553  37.8363833  11.5751673  42.7768553  38.3203833  11.3101673
  45.4498553  38.9873833   4.8321673  46.3048553  39.0863833   4.9771673
  45.0808553  39.5403833   5.3971673  45.5218553  39.0843833   4.9371673
  36.4778553  45.2133833   9.2091673  36.0818553  45.9873833   9.2841673
  36.0718553  44.8403833   8.5331673  36.3598553  45.2723833   9.1201673
  45.7538553  44.2673833   3.3231673  46.4198553  44.8083833   3.4831673
  45.4088553  44.5783833   2.5841673  45.8008553  44.3933833   3.2381673
  36.9068553  38.1903833   6.6591673  36.0428553  38.2743833   6.7391673
  37.1268553  37.6763833   7.3281673  36.8118553  38.1273833   6.7701673
  48.9248553  36.8253833   7.9881673  48.8728553  36.7813833   8.8581673
  49.6118553  36.3223833   7.7981673  49.0188553  36.7453833   8.0881673
  41.0098553  38.9383833   5.0331673  40.2728553  38.4843833   5.1461673
  41.5808553  38.5363833   5.5561673  40.9848553  38.8113833   5.1271673
  43.7418553  49.7863833   6.8211673  43.9478553  50.0873833   7.6131673
  43.6808553  50.5083833   6.3361673  43.7628553  49.9373833   6.8661673
  43.2758553  54.0003833  11.0671673  42.5228553  53.9823833  10.6261673
  43.4438553  54.8523833  11.1511673  43.1898553  54.1233833  11.0141673
  38.5128553  43.2673833  10.2371673  38.1908553  42.6913833   9.6671673
  38.1538553  44.0223833   9.9911673  38.4128553  43.2933833  10.1171673
  48.5538553  48.4253833   6.2791673  48.5218553  47.5633833   6.1441673
  47.8608553  48.7273833   5.8451673  48.4468553  48.3423833   6.1951673
  36.9478553  53.6233833  10.4851673  36.9888553  53.7493833  11.3481673
  37.5988553  53.0633833  10.3291673  37.0498553  53.5593833  10.5901673
  46.6588553  51.6853833   5.0761673  47.1858553  51.6023833   4.3851673
  46.2678553  50.9073833   5.1301673  46.6788553  51.5583833   4.9821673
  34.1268553  38.2733833   7.3071673  33.7838553  37.5063833   7.0731673
  33.4318553  38.7973833   7.3711673  33.9738553  38.2373833   7.2821673
  43.1728553  37.1293833   4.2841673  43.8428553  37.6733833   4.4111673
  42.6698553  37.5533833   3.7111673  43.1978553  37.2723833   4.2181673
  34.5408553  52.0063833  11.8451673  35.1358553  52.4373833  12.3171673
  34.1768553  52.6303833  11.3561673  34.5748553  52.1623833  11.8421673
  42.5318553  42.9373833   1.7771673  43.0828553  42.3303833   2.0771673
  42.1068553  43.2003833   2.4921673  42.5508553  42.8863833   1.9261673
  32.4678553  49.9953833   8.7741673  31.8938553  50.4113833   9.2831673
  33.2008553  50.4603833   8.8691673  32.4918553  50.1253833   8.8631673
  47.7758553  46.1413833  11.4901673  48.4098553  45.9713833  12.0641673
  48.1928553  46.5443833  10.8381673  47.9308553  46.1763833  11.4791673
  48.4008553  40.7053833  12.2281673  48.2048553  41.3493833  12.7831673
  47.6788553  40.2153833  12.2201673  48.2658553  40.7283833  12.3091673
  48.2998553  41.6463833   5.1991673  47.4668553  41.8963833   5.1271673
  48.2438553  40.8063833   5.4281673  48.1688553  41.5593833   5.2221673
  37.5598553  38.6343833  10.3931673  37.7938553  38.0583833   9.7801673
  36.7178553  38.4533833  10.5341673  37.4698553  38.5223833  10.3231673
  45.1868553  46.2523833  12.8451673  46.0578553  46.2163833  12.8091673
  44.9678553  46.6723833  12.1131673  45.2838553  46.3083833  12.7321673
  34.9408553  52.0773833   4.0261673  34.8618553  51.2673833   3.7101673
  34.4968553  52.5643833   3.4541673  34.8638553  52.0293833   3.8951673
  32.5128553  54.3213833   7.6071673  33.0058553  54.2653833   8.3251673
  32.7008553  53.5883833   7.1721673  32.6138553  54.2043833   7.6491673
  41.9508553  18.3592753  75.7791313  41.7058553  18.8472753  75.0991313
  42.8138553  18.2862753  75.6791313  42.0418553  18.4202753  75.6641313
  41.7598553  25.2752753  80.4501313  41.2358553  25.8712753  80.8131313
  42.1568553  24.9072753  81.1341313  41.7408553  25.3092753  80.6051313
  31.6288553  29.4152753  75.9061313  31.1878553  29.5332753  76.6491313
  31.3458553  28.6402753  75.6211313  31.5218553  29.3182753  75.9741313
  47.9038553  32.7162753  73.4211313  48.6048553  32.1972753  73.4171313
  47.3168553  32.2712753  72.9521313  47.9208553  32.5732753  73.3511313
  31.3718553  23.2072753  72.4131313  30.5938553  23.3692753  72.0531313
  31.4108553  22.3362753  72.4351313  31.2628553  23.1022753  72.3631313
  34.5108553  28.4702753  71.0851313  34.1188553  28.0992753  70.3991313
  34.4308553  27.8722753  71.7141313  34.4408553  28.3272753  71.0761313
  44.4308553  26.3422753  77.1261313  44.5108553  26.3462753  76.2571313
  43.8468553  25.7102753  77.2751313  44.3558553  26.2492753  77.0201313
  34.1378553  30.1112753  74.9851313  34.7458553  29.9412753  75.5881313
  33.3868553  29.9712753  75.4061313  34.1168553  30.0652753  75.1361313
  38.4198553  19.4462753  74.9341313  38.3498553  20.1232753  74.3881313
  39.1608553  19.0582753  74.6851313  38.5188553  19.4892753  74.8161313
  33.0288553  33.2022753  71.0621313  33.4958553  33.2862753  70.3301313
  33.4838553  32.6242753  71.5311313  33.1648553  33.1292753  71.0231313
  33.0148553  26.6712753  76.3631313  32.5528553  26.2792753  75.7361313
  33.7148553  26.1582753  76.4551313  33.0498553  26.5382753  76.2841313
  35.0158553  24.7712753  76.3861313  35.8328553  24.5842753  76.6291313
  34.5388553  24.1572753  76.7821313  35.0658553  24.6532753  76.4811313
  39.2198553  30.7522753  78.9961313  39.5678553  29.9532753  79.0261313
  39.8848553  31.2562753  78.7411313  39.3698553  30.7082753  78.9631313
  39.2768553  30.2012753  75.2071313  39.6078553  29.5572753  75.6931313
  39.5168553  29.9902753  74.3961313  39.3608553  30.0752753  75.1591313
  35.6128553  19.8652753  75.6521313  35.3168553  20.3662753  75.0021313
  36.4798553  19.9432753  75.5951313  35.6968553  19.9512753  75.5481313
  38.5918553  19.0072753  77.8751313  38.6648553  19.8672753  78.0041313
  38.5538553  18.9322753  77.0071313  38.5968553  19.1232753  77.7661313
  43.2648553  21.9332753  70.1741313  42.8148553  22.6142753  70.4811313
  43.3788553  21.4292753  70.8771313  43.2158553  21.9592753  70.3231313
  31.4708553  24.4322753  79.3761313  31.2148553  25.2632753  79.3011313
  30.8068553  24.0492753  79.7931313  31.3348553  24.4982753  79.4271313
  31.3808553  34.1422753  77.2761313  30.7888553  34.7002753  76.9631313
  31.8068553  33.8732753  76.5641313  31.3568553  34.1842753  77.1251313
  37.2208553  31.9862753  74.7561313  36.6418553  31.7112753  75.3481313
  37.8448553  31.3772753  74.7811313  37.2278553  31.8562753  74.8471313
  43.3638553  34.2742753  72.2781313  44.0908553  34.7462753  72.3801313
  43.5928553  33.4802753  72.5581313  43.5058553  34.2272753  72.3351313
  41.5318553  34.6662753  74.2681313  41.7458553  35.1932753  74.9301313
  42.2988553  34.4922753  73.8891313  41.6768553  34.7182753  74.3101313
  34.4998553  19.2492753  79.8671313  33.9788553  18.6212753  79.5591313
  35.0908553  18.8122753  80.3381313  34.5108553  19.0912753  79.8911313
  32.9258553  32.8122753  75.2071313  33.5818553  32.2372753  75.2221313
  33.3148553  33.5612753  74.9861313  33.0808553  32.8372753  75.1771313
  48.6588553  21.9062753  76.4691313  48.3128553  22.5842753  76.8951313
  48.0228553  21.3082753  76.4851313  48.5138553  21.9182753  76.5341313
  33.7438553  31.2992753  78.7071313  34.1668553  30.9432753  78.0331313
  34.0678553  30.8772753  79.3991313  33.8538553  31.1842753  78.7101313
  36.9748553  34.1512753  78.0031313  37.8188553  34.2552753  77.8081313
  36.6778553  34.9692753  78.0711313  37.0558553  34.2872753  77.9841313
  40.7818553  23.5482753  76.0901313  41.0688553  23.3162753  75.3001313
  41.5138553  23.6272753  76.5591313  40.9318553  23.5252753  76.0431313
  41.5038553  23.8872753  71.2111313  41.7848553  24.6752753  71.4601313
  40.7278553  24.0522753  70.8481313  41.4308553  24.0282753  71.1941313
  45.5448553  35.8612753  72.6781313  46.2098553  35.7132753  72.1331313
  45.9048553  35.7782753  73.4681313  45.6968553  35.8272753  72.7141313
  40.3628553  32.0582753  71.0271313  40.1818553  32.6032753  71.6841313
  41.1288553  32.3482753  70.7261313  40.4488553  32.1822753  71.0801313
  43.8698553  19.9542753  72.0811313  44.4098553  19.2722753  72.1571313
  43.9318553  20.3522753  72.8551313  43.9588553  19.9122753  72.2071313
  31.8238553  21.1222753  74.6501313  31.7098553  20.2582753  74.6811313
  31.3488553  21.4162753  75.3201313  31.7368553  21.0382753  74.7531313
  41.1278553  22.3302753  73.3951313  40.6198553  21.6682753  73.1411313
  41.1798553  22.8342753  72.6851313  41.0608553  22.3072753  73.2531313
  41.1278553  19.2712753  73.2861313  40.6728553  18.8692753  72.6601313
  41.9008553  19.4262753  72.9111313  41.1748553  19.2352753  73.1381313
  47.9538553  35.6282753  76.6761313  47.4988553  36.3452753  76.8771313
  47.3398553  35.0572753  76.4341313  47.7958553  35.6502753  76.6701313
  39.7258553  21.6382753  77.8081313  39.7998553  22.2062753  77.1501313
  39.8468553  22.1302753  78.5181313  39.7538553  21.7952753  77.8161313
  44.9508553  31.4732753  76.2201313  45.6518553  30.9912753  76.4091313
  44.2908553  30.9042753  76.2651313  44.9568553  31.3182753  76.2541313
  34.3338553  17.4612753  76.1561313  34.8698553  18.1492753  76.1461313
  34.3368553  17.1872753  75.3281313  34.4128553  17.5222753  76.0321313
  37.2898553  27.8942753  80.1811313  37.4618553  27.6842753  81.0101313
  36.6348553  27.3602753  79.9651313  37.2188553  27.7842753  80.2721313
  44.7738553  17.7522753  76.5321313  44.8228553  17.4342753  77.3431313
  45.0968553  17.1082753  76.0391313  44.8288553  17.6102753  76.5791313
  34.7818553  21.2712753  77.8101313  35.0538553  20.8412753  77.1021313
  34.6058553  20.6352753  78.3811313  34.7958553  21.1142753  77.7901313
  47.4698553  28.9662753  72.0281313  47.5888553  28.6792753  72.8431313
  48.2768553  28.9872753  71.6981313  47.6058553  28.9272753  72.1001313
  34.6058553  28.6982753  77.3591313  35.4568553  28.6182753  77.1861313
  34.2488553  28.0162753  76.9471313  34.6788553  28.5852753  77.2721313
  33.3728553  35.4232753  78.5961313  32.6998553  34.9252753  78.3511313
  33.7758553  35.6082753  77.8451313  33.3328553  35.3772753  78.4491313
  32.9228553  22.3732753  80.8921313  33.7658553  22.5932753  80.8491313
  32.5338553  22.9462753  80.3611313  32.9898553  22.4902753  80.8071313
  45.3648553  25.5032753  71.6131313  45.1448553  26.2342753  71.1911313
  44.9168553  25.5542753  72.3601313  45.2658553  25.6182753  71.6611313
  36.9738553  28.7052753  75.5941313  37.6868553  29.2002753  75.6841313
  37.1958553  28.1382753  74.9681313  37.1118553  28.6942753  75.5151313
  49.5518553  20.3642753  71.0661313  48.8898553  19.7962753  71.0891313
  49.3588553  20.8762753  70.3861313  49.4258553  20.3562753  70.9691313
  31.1298553  30.3482753  78.9141313  30.4628553  30.8362753  79.1901313
  31.8098553  30.8932753  78.9431313  31.1318553  30.5002753  78.9591313
  31.1958553  27.0322753  74.0171313  31.0108553  26.1932753  74.1691313
  31.8548553  26.9962753  73.4471313  31.2658553  26.9032753  73.9551313
  47.5538553  19.9222753  73.3451313  48.2998553  19.5152753  73.5441313
  47.8168553  20.6372753  72.9201313  47.7028553  19.9682753  73.3121313
  41.4968553  32.4082753  77.9211313  40.9738553  33.0422753  77.6281313
  41.8068553  32.0442753  77.1921313  41.4648553  32.4482753  77.7701313
  31.3678553  31.1962753  73.5921313  31.9198553  31.7652753  73.9561313
  31.1358553  30.6812753  74.2571313  31.4148553  31.2042753  73.7441313
  35.5718553  30.1962753  80.6811313  36.0388553  30.4852753  81.3591313
  36.1438553  29.7182753  80.2271313  35.7258553  30.1682753  80.7141313
  44.0078553  22.2102753  78.4181313  44.3518553  22.3622753  79.2051313
  43.5548553  21.4722753  78.5311313  43.9918553  22.1232753  78.5511313
  31.1978553  29.6452753  71.2201313  31.9538553  29.2132753  71.2781313
  31.2128553  30.1772753  71.9111313  31.3118553  29.6602753  71.3311313
  32.1378553  27.8662753  79.2251313  32.5688553  27.7372753  78.4781313
  31.9328553  28.7142753  79.1991313  32.1708553  27.9722753  79.1111313
  38.4838553  21.4302753  72.8751313  38.4818553  21.3132753  72.0101313
  38.3028553  22.2782753  72.9671313  38.4568553  21.5382753  72.7611313
  36.2218553  31.3822753  77.5071313  36.3478553  32.2252753  77.6941313
  36.8898553  30.9832753  77.9031313  36.3398553  31.4482753  77.5931313
  34.8368553  24.2622753  72.5091313  34.7088553  23.8142753  73.2471313
  34.2548553  23.9202753  71.9571313  34.7318553  24.1452753  72.5371313
  35.0038553  26.0922753  79.1081313  34.2228553  26.0332753  78.7251313
  35.0758553  25.3402753  79.5451313  34.8988553  25.9732753  79.1161313
  45.3288553  23.5422753  80.9721313  44.6668553  23.8702753  81.4351313
  45.5158553  24.1762753  80.4031313  45.2588553  23.6842753  80.9561313
  43.5218553  21.5112753  74.4831313  44.0118553  22.2282753  74.4061313
  42.7318553  21.7722753  74.2201313  43.4778553  21.6552753  74.4331313
  40.1038553  22.9812753  80.2081313  40.5838553  23.6802753  80.4161313
  40.4768553  22.3342753  80.6591313  40.2298553  22.9892753  80.3051313
  42.2928553  26.1502753  72.4821313  42.2848553  26.8722753  71.9921313
  41.6538553  26.2852753  73.0591313  42.1978553  26.2772753  72.4951313
  47.2648553  30.0202753  76.4631313  47.6208553  29.6702753  77.1781313
  47.2568553  29.3592753  75.8931313  47.3168553  29.8702753  76.4841313
  43.3098553  33.0862753  80.3071313  42.7068553  32.7902753  79.7501313
  43.8548553  33.5382753  79.7981313  43.3008553  33.1092753  80.1491313
  43.3228553  29.9372753  79.7071313  42.5258553  30.1612753  79.9811313
  43.5808553  29.3432753  80.2921313  43.2428553  29.8822753  79.8341313
  37.2148553  34.7492753  74.1551313  37.0678553  33.9732753  74.5261313
  37.9038553  34.6022753  73.6401313  37.2948553  34.6122753  74.1341313
  36.8858553  18.4922753  72.1431313  36.9828553  18.3852753  73.0041313
  36.1778553  18.9982753  72.0781313  36.7958553  18.5512753  72.2611313
  39.5068553  34.2652753  72.5571313  40.1288553  34.4282753  73.1471313
  39.5428553  34.9562753  72.0251313  39.6038553  34.3912753  72.5661313
  34.0078553  26.7992753  73.3861313  34.3318553  26.0202753  73.1641313
  34.6538553  27.1672753  73.8411313  34.1508553  26.7382753  73.4201313
  31.0048553  18.4602753  74.3541313  31.1338553  17.7522753  73.8621313
  30.6378553  18.1422753  75.0791313  30.9698553  18.3082753  74.3891313
  40.6978553  26.1412753  74.8111313  40.7568553  26.7912753  75.3901313
  40.5088553  25.4452753  75.3021313  40.6788553  26.1342753  74.9691313
  45.9238553  30.4702753  80.6801313  45.4448553  30.7682753  80.0141313
  45.5678553  29.6942753  80.8581313  45.8008553  30.3992753  80.6081313
  35.1938553  20.6582753  71.3231313  34.6828553  20.7112753  70.6171313
  35.9778553  20.8982753  71.0271313  35.2338553  20.7012753  71.1751313
  39.9208553  28.1882753  79.2421313  39.0738553  27.9942753  79.3231313
  40.2448553  28.0232753  80.0351313  39.8428553  28.1352753  79.3711313
  36.6728553  34.9182753  70.1281313  37.1118553  34.2212753  70.4161313
  36.8798553  35.5422753  70.7011313  36.7688553  34.9072753  70.2551313
  33.7688553  27.8812753  81.5581313  34.4908553  28.3692753  81.5211313
  33.4988553  27.8512753  80.7291313  33.8358553  27.9492753  81.4301313
  36.9988553  23.0522753  78.2931313  37.8448553  22.8622753  78.3911313
  36.6288553  22.2752753  78.1551313  37.0688553  22.9092753  78.2871313
  49.6158553  34.6362753  72.6201313  50.3098553  34.1692753  72.3721313
  49.0768553  34.0382753  72.9571313  49.6388553  34.4782753  72.6331313
  31.8198553  24.3902753  74.9481313  32.3088553  24.0982753  75.6091313
  31.9488553  23.7972753  74.3211313  31.9108553  24.2592753  74.9531313
  36.3448553  25.8242753  70.4341313  35.7348553  25.4192753  70.9081313
  35.9588553  25.9422753  69.6611313  36.1978553  25.7812753  70.3901313
  48.1108553  27.4832753  79.2361313  47.8248553  27.8842753  79.9561313
  48.9708553  27.4212753  79.3631313  48.1958553  27.5332753  79.3611313
  37.7998553  24.2852753  73.1441313  38.0718553  25.1112753  73.2111313
  36.9368553  24.3602753  73.0481313  37.7128553  24.4182753  73.1391313
  31.2798553  20.2552753  79.6801313  31.3238553  20.5992753  78.8791313
  32.0348553  20.4922753  80.0471313  31.3978553  20.3412753  79.6161313
  49.2418553  33.1162753  79.7651313  49.5318553  33.3732753  78.9841313
  49.9368553  33.2122753  80.2841313  49.3878553  33.1682753  79.7261313
  45.8468553  31.7192753  71.7471313  46.1808553  30.9132753  71.7821313
  45.0918553  31.6472753  72.1771313  45.7848553  31.5892753  71.8161313
  46.3288553  23.5532753  77.4061313  45.5838553  23.2302753  77.7241313
  46.3308553  24.3792753  77.6861313  46.2188553  23.6272753  77.4941313
  43.2208553  29.5942753  71.1501313  43.9048553  29.0802753  70.9811313
  42.8038553  29.6402753  70.3851313  43.2598553  29.5252753  71.0121313
  39.6828553  34.5602753  77.1731313  40.2288553  35.2392753  77.2271313
  39.3328553  34.6422753  76.3781313  39.7118553  34.6732753  77.0631313
  37.8658553  32.7882753  80.5621313  37.2418553  33.3702753  80.3801313
  38.1138553  32.5022753  79.7761313  37.8098553  32.8322753  80.4191313
  47.9468553  24.1182753  71.3941313  48.3248553  24.7952753  70.9941313
  47.1048553  24.3422753  71.4251313  47.8778553  24.2512753  71.3391313
  39.4598553  27.5642753  70.4771313  38.6548553  27.3872753  70.1921313
  39.4268553  28.4152753  70.6691313  39.3358553  27.6632753  70.4641313
  35.3898553  23.6312753  80.6271313  35.8298553  23.5282753  79.8811313
  35.9348553  23.3182753  81.2321313  35.5348553  23.5702753  80.6061313
  45.6418553  23.7172753  74.7691313  45.8488553  23.5162753  75.5931313
  46.3978553  23.9852753  74.4271313  45.7838553  23.7272753  74.8401313
  38.9368553  18.6162753  80.6741313  38.1108553  18.4672753  80.9111313
  38.8968553  18.6512753  79.8031313  38.8088553  18.5992753  80.5801313
  46.6638553  19.8002753  76.2431313  45.9498553  19.3292753  76.4141313
  46.5018553  20.1412753  75.4571313  46.5348553  19.7812753  76.1521313
  47.1068553  27.7442753  74.6231313  47.5828553  27.0152753  74.5751313
  46.2858553  27.4582753  74.5471313  47.0558553  27.5942753  74.6041313
  34.5658553  21.7582753  73.9341313  34.6918553  21.4292753  73.1361313
  33.7538553  21.5092753  74.1331313  34.4648553  21.6732753  73.8461313
  43.3228553  28.9112753  76.9781313  43.3988553  29.2522753  77.7771313
  43.4918553  28.0642753  77.0991313  43.3588553  28.8362753  77.1141313
  40.8448553  28.1852753  76.5431313  40.5468553  27.8702753  77.3001313
  41.5398553  28.6582753  76.7781313  40.9038553  28.2082753  76.6901313
  44.7738553  35.1412753  79.0731313  44.3228553  35.7842753  79.4521313
  45.4818553  35.0622753  79.5781313  44.8118553  35.2242753  79.2041313
  47.8768553  24.8572753  74.0651313  47.9798553  24.7992753  73.2011313
  48.6178553  24.5252753  74.3831313  48.0018553  24.8002753  73.9841313
  41.7968553  31.8222753  75.1721313  41.5918553  32.6552753  75.0131313
  41.0218553  31.4402753  75.2941313  41.6518553  31.8892753  75.1671313
  33.1708553  23.3792753  70.4671313  32.4988553  23.3932753  71.0231313
  33.2658553  22.5312753  70.2831313  33.0858553  23.2562753  70.5221313
  41.8518553  19.9932753  78.0571313  41.1518553  20.5112753  78.0011313
  41.8898553  19.6132753  77.2731313  41.7538553  20.0142753  77.9331313
  37.1588553  32.0842753  71.5811313  37.5998553  32.1642753  72.3291313
  36.3538553  31.8682753  71.8391313  37.1048553  32.0642753  71.7301313
  45.4498553  20.5092753  80.8571313  46.3048553  20.6082753  81.0021313
  45.0808553  21.0622753  81.4221313  45.5218553  20.6062753  80.9621313
  45.7538553  25.7892753  79.3481313  46.4198553  26.3302753  79.5081313
  45.4088553  26.1002753  78.6091313  45.8008553  25.9152753  79.2631313
  46.0668553  33.8552753  75.1551313  45.8928553  33.2012753  75.7051313
  46.7798553  33.5842753  74.7321313  46.1468553  33.7182753  75.1741313
  34.4878553  31.1542753  72.1821313  34.2438553  30.8472753  72.9621313
  34.4548553  30.4512753  71.6661313  34.4468553  31.0052753  72.2211313
  37.3068553  29.3992753  70.9251313  36.4888553  29.1312753  71.0651313
  37.2788553  30.2512753  71.1101313  37.1818553  29.4862753  70.9731313
  41.0098553  20.4602753  81.0581313  40.2728553  20.0062753  81.1711313
  41.5808553  20.0582753  81.5811313  40.9848553  20.3332753  81.1521313
  39.3088553  18.0412753  70.8891313  39.3868553  18.2882753  70.0561313
  38.5658553  18.4182753  71.1471313  39.2108553  18.1332753  70.8041313
  46.6588553  33.2072753  81.1011313  47.1858553  33.1242753  80.4101313
  46.2678553  32.4292753  81.1551313  46.6788553  33.0802753  81.0071313
  43.1728553  18.6512753  80.3091313  43.8428553  19.1952753  80.4361313
  42.6698553  19.0752753  79.7361313  43.1978553  18.7942753  80.2431313
  42.5318553  24.4592753  77.8021313  43.0828553  23.8522753  78.1021313
  42.1068553  24.7222753  78.5171313  42.5508553  24.4082753  77.9511313
  32.7798553  23.1092753  77.2881313  32.4118553  23.4112753  78.0191313
  33.3138553  22.4802753  77.5721313  32.8038553  23.0612753  77.4381313
  44.5018553  26.2902753  74.3641313  44.5698553  25.4402753  74.5451313
  43.6788553  26.3762753  74.0861313  44.3898553  26.1772753  74.3501313
  34.2538553  34.7842753  73.5741313  34.1088553  34.9402753  72.7281313
  35.1198553  34.8632753  73.6521313  34.3608553  34.8192753  73.4611313
  38.4208553  27.1812753  73.3021313  38.5208553  27.3202753  72.4471313
  39.2388553  27.1212753  73.5981313  38.5558553  27.1922753  73.2191313
  47.5808553  35.2452753  70.7821313  48.2178553  35.1112753  71.3631313
  47.2398553  34.4512753  70.6651313  47.6248553  35.1082753  70.8501313
  43.6558553  31.5102753  73.1041313  43.4048553  31.3822753  73.9301313
  43.3388553  30.8152753  72.6831313  43.5718553  31.3892753  73.1641313
  48.2998553  23.1682753  81.2241313  47.4668553  23.4182753  81.1521313
  48.2438553  22.3282753  81.4531313  48.1688553  23.0812753  81.2471313
  34.9408553  33.5992753  80.0511313  34.8618553  32.7892753  79.7351313
  34.4968553  34.0862753  79.4791313  34.8638553  33.5512753  79.9201313
  40.5418553  29.7182753  72.5341313  41.2588553  29.3712753  72.1781313
  40.5078553  30.5182753  72.1861313  40.6428553  29.7852753  72.4301313
  41.9508553  18.3592753  56.7728903  41.7058553  18.8472753  56.0928903
  42.8138553  18.2862753  56.6728903  42.0418553  18.4202753  56.6578903
  41.7598553  25.2752753  61.4438903  41.2358553  25.8712753  61.8068903
  42.1568553  24.9072753  62.1278903  41.7408553  25.3092753  61.5988903
  31.6288553  29.4152753  56.8998903  31.1878553  29.5332753  57.6428903
  31.3458553  28.6402753  56.6148903  31.5218553  29.3182753  56.9678903
  31.3718553  23.2072753  53.4068903  30.5938553  23.3692753  53.0468903
  31.4108553  22.3362753  53.4288903  31.2628553  23.1022753  53.3568903
  34.5108553  28.4702753  52.0788903  34.1188553  28.0992753  51.3928903
  34.4308553  27.8722753  52.7078903  34.4408553  28.3272753  52.0698903
  44.4308553  26.3422753  58.1198903  44.5108553  26.3462753  57.2508903
  43.8468553  25.7102753  58.2688903  44.3558553  26.2492753  58.0138903
  34.1378553  30.1112753  55.9788903  34.7458553  29.9412753  56.5818903
  33.3868553  29.9712753  56.3998903  34.1168553  30.0652753  56.1298903
  38.4198553  19.4462753  55.9278903  38.3498553  20.1232753  55.3818903
  39.1608553  19.0582753  55.6788903  38.5188553  19.4892753  55.8098903
  31.5688553  32.1502753  63.1548903  31.6978553  31.8702753  63.9708903
  30.9588553  31.6092753  62.8458903  31.4978553  32.0292753  63.2298903
  38.1428553  29.6752753  68.2218903  37.9068553  29.6722753  69.0618903
  37.3948553  29.5272753  67.7978903  37.9968553  29.6522753  68.2828903
  33.0148553  26.6712753  57.3568903  32.5528553  26.2792753  56.7298903
  33.7148553  26.1582753  57.4488903  33.0498553  26.5382753  57.2778903
  37.5228553  22.2812753  62.7038903  38.2008553  22.2992753  62.1548903
  37.4778553  21.4452753  62.9488903  37.6158553  22.1602753  62.6588903
  38.1248553  32.8672753  65.4848903  38.2628553  33.6272753  65.0778903
  38.9158553  32.5022753  65.5118903  38.2618553  32.9262753  65.4288903
  35.0158553  24.7712753  57.3798903  35.8328553  24.5842753  57.6228903
  34.5388553  24.1572753  57.7758903  35.0658553  24.6532753  57.4748903
  39.2198553  30.7522753  59.9898903  39.5678553  29.9532753  60.0198903
  39.8848553  31.2562753  59.7348903  39.3698553  30.7082753  59.9568903
  39.2768553  30.2012753  56.2008903  39.6078553  29.5572753  56.6868903
  39.5168553  29.9902753  55.3898903  39.3608553  30.0752753  56.1528903
  41.2448553  24.3322753  67.5398903  40.3968553  24.2332753  67.3618903
  41.2738553  25.0772753  67.9938903  41.1238553  24.4282753  67.5808903
  35.6128553  19.8652753  56.6458903  35.3168553  20.3662753  55.9958903
  36.4798553  19.9432753  56.5888903  35.6968553  19.9512753  56.5418903
  45.8028553  17.2922753  66.6538903  45.6448553  18.0612753  66.2718903
  45.0308553  17.0722753  66.9978903  45.6648553  17.3732753  66.6488903
  38.5918553  19.0072753  58.8688903  38.6648553  19.8672753  58.9978903
  38.5538553  18.9322753  58.0008903  38.5968553  19.1232753  58.7598903
  43.2648553  21.9332753  51.1678903  42.8148553  22.6142753  51.4748903
  43.3788553  21.4292753  51.8708903  43.2158553  21.9592753  51.3168903
  31.4708553  24.4322753  60.3698903  31.2148553  25.2632753  60.2948903
  30.8068553  24.0492753  60.7868903  31.3348553  24.4982753  60.4208903
  31.3808553  34.1422753  58.2698903  30.7888553  34.7002753  57.9568903
  31.8068553  33.8732753  57.5578903  31.3568553  34.1842753  58.1188903
  37.2208553  31.9862753  55.7498903  36.6418553  31.7112753  56.3418903
  37.8448553  31.3772753  55.7748903  37.2278553  31.8562753  55.8408903
  43.3638553  34.2742753  53.2718903  44.0908553  34.7462753  53.3738903
  43.5928553  33.4802753  53.5518903  43.5058553  34.2272753  53.3288903
  41.5318553  34.6662753  55.2618903  41.7458553  35.1932753  55.9238903
  42.2988553  34.4922753  54.8828903  41.6768553  34.7182753  55.3038903
  34.4998553  19.2492753  60.8608903  33.9788553  18.6212753  60.5528903
  35.0908553  18.8122753  61.3318903  34.5108553  19.0912753  60.8848903
  37.8058553  21.3822753  70.1588903  37.9228553  20.9282753  69.4228903
  38.0938553  22.1802753  69.9558903  37.8658553  21.4332753  70.0198903
  32.9258553  32.8122753  56.2008903  33.5818553  32.2372753  56.2158903
  33.3148553  33.5612753  55.9798903  33.0808553  32.8372753  56.1708903
  48.6588553  21.9062753  57.4628903  48.3128553  22.5842753  57.8888903
  48.0228553  21.3082753  57.4788903  48.5138553  21.9182753  57.5278903
  43.9708553  34.6762753  63.5668903  44.7148553  35.1322753  63.5568903
  43.8498553  34.4622753  62.7298903  44.0628553  34.7122753  63.4418903
  33.5388553  20.9792753  69.1428903  32.7608553  20.5892753  69.0708903
  34.0298553  20.5672753  68.5518903  33.4958553  20.8602753  69.0448903
  33.7438553  31.2992753  59.7008903  34.1668553  30.9432753  59.0268903
  34.0678553  30.8772753  60.3928903  33.8538553  31.1842753  59.7038903
  36.9748553  34.1512753  58.9968903  37.8188553  34.2552753  58.8018903
  36.6778553  34.9692753  59.0648903  37.0558553  34.2872753  58.9778903
  40.1878553  18.6222753  68.3108903  40.3658553  17.8132753  68.0358903
  40.0448553  19.0632753  67.5718903  40.1928553  18.5682753  68.1608903
  40.7818553  23.5482753  57.0838903  41.0688553  23.3162753  56.2938903
  41.5138553  23.6272753  57.5528903  40.9318553  23.5252753  57.0368903
  41.5038553  23.8872753  52.2048903  41.7848553  24.6752753  52.4538903
  40.7278553  24.0522753  51.8418903  41.4308553  24.0282753  52.1878903
  35.9728553  35.3702753  64.7368903  36.2648553  35.3032753  65.5568903
  35.3468553  34.7652753  64.6918903  35.9238553  35.2712753  64.8518903
  48.3338553  20.2292753  62.8318903  49.0908553  20.3012753  62.4038903
  48.3968553  19.4562753  63.2308903  48.4548553  20.1262753  62.8268903
  30.8868553  21.5272753  66.7288903  30.8828553  22.1142753  67.3748903
  31.4808553  21.8392753  66.1718903  30.9738553  21.6602753  66.7418903
  43.2248553  31.8612753  67.2708903  43.1908553  32.2432753  68.0548903
  44.0788553  31.8192753  67.0998903  43.3458553  31.9112753  67.3618903
  40.3628553  32.0582753  52.0208903  40.1818553  32.6032753  52.6778903
  41.1288553  32.3482753  51.7198903  40.4488553  32.1822753  52.0738903
  43.8698553  19.9542753  53.0748903  44.4098553  19.2722753  53.1508903
  43.9318553  20.3522753  53.8488903  43.9588553  19.9122753  53.2008903
  31.8238553  21.1222753  55.6438903  31.7098553  20.2582753  55.6748903
  31.3488553  21.4162753  56.3138903  31.7368553  21.0382753  55.7468903
  33.9658553  33.5322753  63.8588903  33.2678553  33.0242753  63.9848903
  34.2258553  33.3272753  63.0508903  33.9008553  33.4272753  63.7578903
  41.1278553  22.3302753  54.3888903  40.6198553  21.6682753  54.1348903
  41.1798553  22.8342753  53.6788903  41.0608553  22.3072753  54.2468903
  41.6768553  35.0252753  64.7688903  42.4448553  34.9452753  64.3628903
  41.0938553  34.9042753  64.1308903  41.7038553  34.9952753  64.6148903
  41.1278553  19.2712753  54.2798903  40.6728553  18.8692753  53.6538903
  41.9008553  19.4262753  53.9048903  41.1748553  19.2352753  54.1318903
  39.7258553  21.6382753  58.8018903  39.7998553  22.2062753  58.1438903
  39.8468553  22.1302753  59.5118903  39.7538553  21.7952753  58.8098903
  44.9508553  31.4732753  57.2138903  45.6518553  30.9912753  57.4028903
  44.2908553  30.9042753  57.2588903  44.9568553  31.3182753  57.2478903
  35.3268553  32.3832753  66.4258903  36.1678553  32.4462753  66.2038903
  35.2898553  32.7802753  67.2018903  35.4458553  32.4512753  66.5078903
  34.3338553  17.4612753  57.1498903  34.8698553  18.1492753  57.1398903
  34.3368553  17.1872753  56.3218903  34.4128553  17.5222753  57.0258903
  37.2898553  27.8942753  61.1748903  37.4618553  27.6842753  62.0038903
  36.6348553  27.3602753  60.9588903  37.2188553  27.7842753  61.2658903
  43.5178553  21.8082753  64.6898903  43.4228553  22.1272753  65.4958903
  42.9248553  21.1692753  64.6518903  43.4158553  21.7602753  64.8038903
  38.0398553  27.8322753  63.7648903  38.0928553  28.6792753  63.9668903
  37.7548553  27.4622753  64.5018903  38.0058553  27.9022753  63.9028903
  44.2168553  28.5272753  62.8948903  43.7028553  28.1152753  63.4658903
  44.0908553  29.3712753  63.0758903  44.1228553  28.5912753  63.0058903
  44.7738553  17.7522753  57.5258903  44.8228553  17.4342753  58.3368903
  45.0968553  17.1082753  57.0328903  44.8288553  17.6102753  57.5728903
  30.8608553  32.2032753  69.9758903  31.6168553  32.5522753  70.2338903
  31.0378553  31.3502753  69.9188903  30.9988553  32.1282753  70.0058903
  47.2378553  21.9882753  65.8338903  48.0098553  21.7632753  66.1708903
  46.7628553  22.2052753  66.5338903  47.2818553  21.9872753  65.9868903
  34.7818553  21.2712753  58.8038903  35.0538553  20.8412753  58.0958903
  34.6058553  20.6352753  59.3748903  34.7958553  21.1142753  58.7838903
  47.4698553  28.9662753  53.0218903  47.5888553  28.6792753  53.8368903
  48.2768553  28.9872753  52.6918903  47.6058553  28.9272753  53.0938903
  34.6058553  28.6982753  58.3528903  35.4568553  28.6182753  58.1798903
  34.2488553  28.0162753  57.9408903  34.6788553  28.5852753  58.2658903
  33.3728553  35.4232753  59.5898903  32.6998553  34.9252753  59.3448903
  33.7758553  35.6082753  58.8388903  33.3328553  35.3772753  59.4428903
  32.9228553  22.3732753  61.8858903  33.7658553  22.5932753  61.8428903
  32.5338553  22.9462753  61.3548903  32.9898553  22.4902753  61.8008903
  49.7038553  33.4752753  67.2758903  49.0218553  33.7852753  66.8288903
  49.3348553  33.0172753  67.9208903  49.5478553  33.4532753  67.3048903
  45.3648553  25.5032753  52.6068903  45.1448553  26.2342753  52.1848903
  44.9168553  25.5542753  53.3538903  45.2658553  25.6182753  52.6548903
  36.9738553  28.7052753  56.5878903  37.6868553  29.2002753  56.6778903
  37.1958553  28.1382753  55.9618903  37.1118553  28.6942753  56.5088903
  49.5518553  20.3642753  52.0598903  48.8898553  19.7962753  52.0828903
  49.3588553  20.8762753  51.3798903  49.4258553  20.3562753  51.9628903
  31.1298553  30.3482753  59.9078903  30.4628553  30.8362753  60.1838903
  31.8098553  30.8932753  59.9368903  31.1318553  30.5002753  59.9528903
  38.7768553  24.0582753  70.0038903  38.2928553  24.6352753  70.4458903
  38.7488553  24.3532753  69.1828903  38.7008553  24.1872753  69.9478903
  49.8748553  24.7422753  64.6158903  50.0898553  23.9422753  64.3398903
  49.0248553  24.8022753  64.4268903  49.7808553  24.6332753  64.5468903
  31.1958553  27.0322753  55.0108903  31.0108553  26.1932753  55.1628903
  31.8548553  26.9962753  54.4408903  31.2658553  26.9032753  54.9488903
  47.5538553  19.9222753  54.3388903  48.2998553  19.5152753  54.5378903
  47.8168553  20.6372753  53.9138903  47.7028553  19.9682753  54.3058903
  41.4968553  32.4082753  58.9148903  40.9738553  33.0422753  58.6218903
  41.8068553  32.0442753  58.1858903  41.4648553  32.4482753  58.7638903
  31.3678553  31.1962753  54.5858903  31.9198553  31.7652753  54.9498903
  31.1358553  30.6812753  55.2508903  31.4148553  31.2042753  54.7378903
  35.5718553  30.1962753  61.6748903  36.0388553  30.4852753  62.3528903
  36.1438553  29.7182753  61.2208903  35.7258553  30.1682753  61.7078903
  44.0078553  22.2102753  59.4118903  44.3518553  22.3622753  60.1988903
  43.5548553  21.4722753  59.5248903  43.9918553  22.1232753  59.5448903
  32.1378553  27.8662753  60.2188903  32.5688553  27.7372753  59.4718903
  31.9328553  28.7142753  60.1928903  32.1708553  27.9722753  60.1048903
  38.4838553  21.4302753  53.8688903  38.4818553  21.3132753  53.0038903
  38.3028553  22.2782753  53.9608903  38.4568553  21.5382753  53.7548903
  47.5378553  33.8572753  65.3658903  46.8668553  34.3712753  65.5838903
  47.6008553  33.9572753  64.5018903  47.4478553  33.9482753  65.2708903
  36.2218553  31.3822753  58.5008903  36.3478553  32.2252753  58.6878903
  36.8898553  30.9832753  58.8968903  36.3398553  31.4482753  58.5868903
  34.3518553  24.8652753  68.3628903  33.8158553  24.3592753  68.8308903
  34.3718553  24.4752753  67.5828903  34.2748553  24.7322753  68.3168903
  34.8368553  24.2622753  53.5028903  34.7088553  23.8142753  54.2408903
  34.2548553  23.9202753  52.9508903  34.7318553  24.1452753  53.5308903
  35.0038553  26.0922753  60.1018903  34.2228553  26.0332753  59.7188903
  35.0758553  25.3402753  60.5388903  34.8988553  25.9732753  60.1098903
  35.4338553  25.8292753  63.5698903  35.4588553  25.1542753  63.0188903
  34.7878553  26.3252753  63.2578903  35.3428553  25.8022753  63.4428903
  45.3288553  23.5422753  61.9658903  44.6668553  23.8702753  62.4288903
  45.5158553  24.1762753  61.3968903  45.2588553  23.6842753  61.9498903
  39.5338553  34.6062753  62.9618903  39.2568553  33.9652753  62.4388903
  39.3258553  35.3322753  62.5238903  39.4628553  34.6192753  62.8198903
  41.9738553  19.4482753  65.3948903  42.1228553  18.6232753  65.1518903
  42.3528553  19.5032753  66.1788903  42.0518553  19.3342753  65.4748903
  43.5218553  21.5112753  55.4768903  44.0118553  22.2282753  55.3998903
  42.7318553  21.7722753  55.2138903  43.4778553  21.6552753  55.4268903
  33.2328553  27.1842753  69.1288903  33.1958553  27.6852753  68.4148903
  33.5638553  26.4322753  68.8338903  33.2758553  27.1462753  68.9798903
  44.8358553  29.3892753  67.3868903  45.3198553  30.1072753  67.4848903
  45.2298553  28.9622753  66.7358903  44.9658553  29.4322753  67.3048903
  39.1318553  32.2342753  68.5638903  39.4858553  32.0562753  69.3408903
  38.6958553  31.5052753  68.3648903  39.1198553  32.1002753  68.6498903
  40.1038553  22.9812753  61.2018903  40.5838553  23.6802753  61.4098903
  40.4768553  22.3342753  61.6528903  40.2298553  22.9892753  61.2988903
  42.2928553  26.1502753  53.4758903  42.2848553  26.8722753  52.9858903
  41.6538553  26.2852753  54.0528903  42.1978553  26.2772753  53.4888903
  47.2648553  30.0202753  57.4568903  47.6208553  29.6702753  58.1718903
  47.2568553  29.3592753  56.8868903  47.3168553  29.8702753  57.4778903
  43.3228553  29.9372753  60.7008903  42.5258553  30.1612753  60.9748903
  43.5808553  29.3432753  61.2858903  43.2428553  29.8822753  60.8278903
  37.2148553  34.7492753  55.1488903  37.0678553  33.9732753  55.5198903
  37.9038553  34.6022753  54.6338903  37.2948553  34.6122753  55.1278903
  36.8858553  18.4922753  53.1368903  36.9828553  18.3852753  53.9978903
  36.1778553  18.9982753  53.0718903  36.7958553  18.5512753  53.2548903
  39.5068553  34.2652753  53.5508903  40.1288553  34.4282753  54.1408903
  39.5428553  34.9562753  53.0188903  39.6038553  34.3912753  53.5598903
  46.5828553  27.9352753  65.5468903  46.6378553  28.0602753  64.6848903
  47.3358553  28.2552753  65.8488903  46.7018553  28.0002753  65.4638903
  42.7738553  33.2842753  69.8238903  42.9378553  33.5672753  70.6328903
  43.0368553  33.9452753  69.3188903  42.8368553  33.4242753  69.8688903
  47.6148553  18.2332753  68.5338903  46.9778553  17.8332753  68.0918903
  47.6408553  17.8022753  69.2918903  47.5248553  18.1112753  68.5798903
  34.0078553  26.7992753  54.3798903  34.3318553  26.0202753  54.1578903
  34.6538553  27.1672753  54.8348903  34.1508553  26.7382753  54.4138903
  42.3138553  27.7412753  65.1468903  42.1588553  28.3512753  65.7508903
  42.8478553  27.1832753  65.5528903  42.3698553  27.7492753  65.2958903
  31.0048553  18.4602753  55.3478903  31.1338553  17.7522753  54.8558903
  30.6378553  18.1422753  56.0728903  30.9698553  18.3082753  55.3828903
  40.6978553  26.1412753  55.8048903  40.7568553  26.7912753  56.3838903
  40.5088553  25.4452753  56.2958903  40.6788553  26.1342753  55.9628903
  45.9238553  30.4702753  61.6738903  45.4448553  30.7682753  61.0078903
  45.5678553  29.6942753  61.8518903  45.8008553  30.3992753  61.6018903
  35.1938553  20.6582753  52.3168903  34.6828553  20.7112753  51.6108903
  35.9778553  20.8982753  52.0208903  35.2338553  20.7012753  52.1688903
  39.9208553  28.1882753  60.2358903  39.0738553  27.9942753  60.3168903
  40.2448553  28.0232753  61.0288903  39.8428553  28.1352753  60.3648903
  36.6728553  34.9182753  51.1218903  37.1118553  34.2212753  51.4098903
  36.8798553  35.5422753  51.6948903  36.7688553  34.9072753  51.2488903
  33.7688553  27.8812753  62.5518903  34.4908553  28.3692753  62.5148903
  33.4988553  27.8512753  61.7228903  33.8358553  27.9492753  62.4238903
  36.9988553  23.0522753  59.2868903  37.8448553  22.8622753  59.3848903
  36.6288553  22.2752753  59.1488903  37.0688553  22.9092753  59.2808903
  31.8198553  24.3902753  55.9418903  32.3088553  24.0982753  56.6028903
  31.9488553  23.7972753  55.3148903  31.9108553  24.2592753  55.9468903
  46.8548553  27.4122753  62.7928903  46.8478553  26.6362753  63.1908903
  46.0138553  27.6462753  62.7858903  46.7298553  27.3322753  62.8508903
  36.3448553  25.8242753  51.4278903  35.7348553  25.4192753  51.9018903
  35.9588553  25.9422753  50.6548903  36.1978553  25.7812753  51.3838903
  33.1638553  28.9332753  66.8298903  32.7428553  28.4152753  66.2688903
  32.8118553  29.7192753  66.6868903  33.0498553  28.9732753  66.7258903
  48.1108553  27.4832753  60.2298903  47.8248553  27.8842753  60.9498903
  48.9708553  27.4212753  60.3568903  48.1958553  27.5332753  60.3548903
  37.7998553  24.2852753  54.1378903  38.0718553  25.1112753  54.2048903
  36.9368553  24.3602753  54.0418903  37.7128553  24.4182753  54.1328903
  45.7728553  21.4072753  68.7698903  45.2478553  21.8662753  69.2938903
  45.4118553  20.6122753  68.7638903  45.6418553  21.3572753  68.8458903
  31.2798553  20.2552753  60.6738903  31.3238553  20.5992753  59.8728903
  32.0348553  20.4922753  61.0408903  31.3978553  20.3412753  60.6098903
  49.2418553  33.1162753  60.7588903  49.5318553  33.3732753  59.9778903
  49.9368553  33.2122753  61.2778903  49.3878553  33.1682753  60.7198903
  44.2648553  24.9762753  68.8458903  44.3378553  25.0802753  69.7088903
  43.6308553  25.5342753  68.6248903  44.1818553  25.0742753  68.9408903
  46.5328553  25.2952753  67.2108903  46.8518553  26.0812753  67.4138903
  46.1628553  25.0252753  67.9538903  46.5258553  25.3712753  67.3508903
  45.8468553  31.7192753  52.7408903  46.1808553  30.9132753  52.7758903
  45.0918553  31.6472753  53.1708903  45.7848553  31.5892753  52.8098903
  46.3288553  23.5532753  58.3998903  45.5838553  23.2302753  58.7178903
  46.3308553  24.3792753  58.6798903  46.2188553  23.6272753  58.4878903
  49.2308553  25.8372753  69.9458903  49.1788553  25.4962753  69.1448903
  49.9678553  26.3042753  69.9238903  49.3318553  25.8562753  69.8238903
  48.7688553  29.5132753  66.1518903  49.3968553  28.9642753  65.8958903
  48.7078553  30.0782753  65.4898903  48.8528553  29.5162753  66.0158903
  43.2208553  29.5942753  52.1438903  43.9048553  29.0802753  51.9748903
  42.8038553  29.6402753  51.3788903  43.2598553  29.5252753  52.0058903
  37.9028553  30.7442753  63.4478903  37.6048553  31.3362753  64.0148903
  37.9578553  31.1862753  62.6988903  37.8668553  30.8972753  63.4208903
  35.8818553  29.6942753  66.8458903  35.0758553  29.4042753  67.0128903
  35.7928553  30.5622753  66.8518903  35.7498553  29.7792753  66.8708903
  45.2408553  19.8832753  65.8608903  45.9848553  20.3352753  65.7978903
  44.6748553  20.3532753  65.3918903  45.2678553  20.0202753  65.7828903
  40.4188553  27.1672753  62.9388903  40.8948553  27.5412753  63.5668903
  39.5958553  27.3012753  63.1978903  40.3678553  27.2422753  63.0698903
  37.1288553  22.7702753  65.6798903  37.2898553  22.0262753  66.1068903
  37.0838553  22.5212753  64.8448903  37.1458553  22.6232753  65.6198903
  39.6828553  34.5602753  58.1668903  40.2288553  35.2392753  58.2208903
  39.3328553  34.6422753  57.3718903  39.7118553  34.6732753  58.0568903
  46.5258553  17.8632753  63.5308903  46.2458553  18.6882753  63.4868903
  47.2418553  17.9162753  64.0268903  46.5908553  17.9932753  63.5978903
  38.8808553  18.5782753  65.5598903  39.5858553  18.8982753  65.1578903
  39.1218553  17.7712753  65.7868903  39.0198553  18.5062753  65.5338903
  37.8658553  32.7882753  61.5558903  37.2418553  33.3702753  61.3738903
  38.1138553  32.5022753  60.7698903  37.8098553  32.8322753  61.4128903
  42.1748553  29.4222753  68.5448903  42.9318553  29.7082753  68.2188903
  41.6278553  29.4742753  67.8668903  42.2058553  29.4722753  68.3958903
  46.0838553  31.9722753  67.0488903  46.4298553  32.2422753  67.8028903
  46.3778553  32.5542753  66.4688903  46.1788553  32.0982753  67.0748903
  47.9468553  24.1182753  52.3878903  48.3248553  24.7952753  51.9878903
  47.1048553  24.3422753  52.4188903  47.8778553  24.2512753  52.3328903
  39.4598553  27.5642753  51.4708903  38.6548553  27.3872753  51.1858903
  39.4268553  28.4152753  51.6628903  39.3358553  27.6632753  51.4578903
  35.3898553  23.6312753  61.6208903  35.8298553  23.5282753  60.8748903
  35.9348553  23.3182753  62.2258903  35.5348553  23.5702753  61.5998903
  43.4058553  22.7332753  67.2128903  42.7578553  23.2032753  67.5608903
  43.9708553  22.6442753  67.8718903  43.3938553  22.7892753  67.3618903
  43.0938553  24.2702753  63.5108903  43.3958553  24.6902753  64.2138903
  43.1298553  23.4302753  63.7428903  43.1438553  24.2082753  63.6488903
  40.5188553  34.4372753  67.4358903  40.9968553  33.8372753  67.0198903
  40.1678553  33.9942753  68.1008903  40.5378553  34.2832753  67.4728903
  45.6418553  23.7172753  55.7628903  45.8488553  23.5162753  56.5868903
  46.3978553  23.9852753  55.4208903  45.7838553  23.7272753  55.8338903
  38.9368553  18.6162753  61.6678903  38.1108553  18.4672753  61.9048903
  38.8968553  18.6512753  60.7968903  38.8088553  18.5992753  61.5738903
  46.6638553  19.8002753  57.2368903  45.9498553  19.3292753  57.4078903
  46.5018553  20.1412753  56.4508903  46.5348553  19.7812753  57.1458903
  47.1068553  27.7442753  55.6168903  47.5828553  27.0152753  55.5688903
  46.2858553  27.4582753  55.5408903  47.0558553  27.5942753  55.5978903
  40.5778553  29.6562753  66.4558903  39.7828553  29.5922753  66.8068903
  40.6488553  30.5032753  66.2608903  40.4708553  29.7712753  66.4788903
  31.5018553  19.0142753  67.7028903  31.3618553  19.8092753  67.3718903
  30.7158553  18.7712753  67.9918903  31.3648553  19.0962753  67.6968903
  36.4078553  35.8632753  61.7728903  36.4188553  35.9222753  62.6428903
  35.9828553  35.1162753  61.6228903  36.3468553  35.7612753  61.8788903
  34.5658553  21.7582753  54.9278903  34.6918553  21.4292753  54.1298903
  33.7538553  21.5092753  55.1268903  34.4648553  21.6732753  54.8398903
  43.3228553  28.9112753  57.9718903  43.3988553  29.2522753  58.7708903
  43.4918553  28.0642753  58.0928903  43.3588553  28.8362753  58.1078903
  40.8448553  28.1852753  57.5368903  40.5468553  27.8702753  58.2938903
  41.5398553  28.6582753  57.7718903  40.9038553  28.2082753  57.6838903
  41.0668553  32.3032753  65.5638903  41.7538553  32.1892753  66.0888903
  41.2008553  33.0942753  65.2198903  41.1878553  32.4032753  65.5908903
  49.2428553  24.9122753  67.3748903  48.3878553  24.7902753  67.5008903
  49.3958553  24.5172753  66.6118903  49.1388553  24.8352753  67.2808903
  43.7558553  25.5772753  65.9508903  43.5008553  24.8582753  66.3728903
  44.5768553  25.6932753  66.2208903  43.8398553  25.4882753  66.0528903
  33.1718553  35.3612753  67.2148903  32.5178553  34.7922753  67.3128903
  32.7968553  36.1342753  67.3658903  33.0198553  35.3912753  67.2518903
  41.6898553  26.7672753  69.1378903  42.0128553  27.4532753  68.7058903
  40.9858553  27.0902753  69.5398903  41.6328553  26.9162753  69.1328903
  41.4748553  30.2312753  62.9968903  40.7808553  30.6332753  63.3398903
  42.1518553  30.6642753  63.3358903  41.4718553  30.3542753  63.0978903
  46.8518553  32.8242753  69.5768903  47.6278553  32.4342753  69.6598903
  46.3828553  32.4882753  70.2318903  46.8968553  32.7172753  69.6858903
  34.5428553  23.7692753  65.3438903  34.9178553  24.3882753  64.8568903
  35.2168553  23.2952753  65.6288903  34.6978553  23.7912753  65.3138903
  32.3178553  22.2172753  64.6188903  32.3948553  22.0482753  63.7658903
  33.0638553  22.6232753  64.8158903  32.4388553  22.2522753  64.5218903
  47.8768553  24.8572753  55.0588903  47.9798553  24.7992753  54.1948903
  48.6178553  24.5252753  55.3768903  48.0018553  24.8002753  54.9778903
  34.8718553  19.6272753  67.0298903  34.7908553  18.7832753  67.2358903
  34.5578553  19.6712753  66.2168903  34.8138553  19.5092753  66.9398903
  41.7968553  31.8222753  56.1658903  41.5918553  32.6552753  56.0068903
  41.0218553  31.4402753  56.2878903  41.6518553  31.8892753  56.1608903
  46.9788553  25.0032753  64.4148903  46.9768553  24.1402753  64.5388903
  47.0458553  25.3272753  65.2218903  46.9888553  24.9232753  64.5518903
  31.7148553  27.4432753  64.8428903  32.0348553  27.6622753  64.0618903
  31.6148553  26.5782753  64.7878903  31.7468553  27.3482753  64.7198903
  33.1708553  23.3792753  51.4608903  32.4988553  23.3932753  52.0168903
  33.2658553  22.5312753  51.2768903  33.0858553  23.2562753  51.5158903
  42.8578553  19.8032753  68.1968903  42.9498553  20.5152753  68.6908903
  42.2208553  19.3582753  68.5938903  42.7768553  19.8422753  68.3288903
  41.8518553  19.9932753  59.0508903  41.1518553  20.5112753  58.9948903
  41.8898553  19.6132753  58.2668903  41.7538553  20.0142753  58.9268903
  37.1588553  32.0842753  52.5748903  37.5998553  32.1642753  53.3228903
  36.3538553  31.8682753  52.8328903  37.1048553  32.0642753  52.7238903
  45.4498553  20.5092753  61.8508903  46.3048553  20.6082753  61.9958903
  45.0808553  21.0622753  62.4158903  45.5218553  20.6062753  61.9558903
  36.4778553  26.7352753  66.2278903  36.0818553  27.5092753  66.3028903
  36.0718553  26.3622753  65.5518903  36.3598553  26.7942753  66.1388903
  45.7538553  25.7892753  60.3418903  46.4198553  26.3302753  60.5018903
  45.4088553  26.1002753  59.6028903  45.8008553  25.9152753  60.2568903
  34.4878553  31.1542753  53.1758903  34.2438553  30.8472753  53.9558903
  34.4548553  30.4512753  52.6598903  34.4468553  31.0052753  53.2148903
  37.3068553  29.3992753  51.9188903  36.4888553  29.1312753  52.0588903
  37.2788553  30.2512753  52.1038903  37.1818553  29.4862753  51.9668903
  36.9068553  19.7122753  63.6778903  36.0428553  19.7962753  63.7578903
  37.1268553  19.1982753  64.3468903  36.8118553  19.6492753  63.7888903
  48.9248553  18.3472753  65.0068903  48.8728553  18.3032753  65.8768903
  49.6118553  17.8442753  64.8168903  49.0188553  18.2672753  65.1068903
  41.0098553  20.4602753  62.0518903  40.2728553  20.0062753  62.1648903
  41.5808553  20.0582753  62.5748903  40.9848553  20.3332753  62.1458903
  43.7418553  31.3082753  63.8398903  43.9478553  31.6092753  64.6318903
  43.6808553  32.0302753  63.3548903  43.7628553  31.4592753  63.8848903
  43.2758553  35.5222753  68.0858903  42.5228553  35.5042753  67.6448903
  43.4438553  36.3742753  68.1698903  43.1898553  35.6452753  68.0328903
  38.5128553  24.7892753  67.2558903  38.1908553  24.2132753  66.6858903
  38.1538553  25.5442753  67.0098903  38.4128553  24.8152753  67.1358903
  39.3088553  18.0412753  51.8828903  39.3868553  18.2882753  51.0498903
  38.5658553  18.4182753  52.1408903  39.2108553  18.1332753  51.7978903
  48.5538553  29.9472753  63.2978903  48.5218553  29.0852753  63.1628903
  47.8608553  30.2492753  62.8638903  48.4468553  29.8642753  63.2138903
  36.9478553  35.1452753  67.5038903  36.9888553  35.2712753  68.3668903
  37.5988553  34.5852753  67.3478903  37.0498553  35.0812753  67.6088903
  46.6588553  33.2072753  62.0948903  47.1858553  33.1242753  61.4038903
  46.2678553  32.4292753  62.1488903  46.6788553  33.0802753  62.0008903
  34.1268553  19.7952753  64.3258903  33.7838553  19.0282753  64.0918903
  33.4318553  20.3192753  64.3898903  33.9738553  19.7592753  64.3008903
  43.1728553  18.6512753  61.3028903  43.8428553  19.1952753  61.4298903
  42.6698553  19.0752753  60.7298903  43.1978553  18.7942753  61.2368903
  34.5408553  33.5282753  68.8638903  35.1358553  33.9592753  69.3358903
  34.1768553  34.1522753  68.3748903  34.5748553  33.6842753  68.8608903
  42.5318553  24.4592753  58.7958903  43.0828553  23.8522753  59.0958903
  42.1068553  24.7222753  59.5108903  42.5508553  24.4082753  58.9448903
  32.7798553  23.1092753  58.2818903  32.4118553  23.4112753  59.0128903
  33.3138553  22.4802753  58.5658903  32.8038553  23.0612753  58.4318903
  32.4678553  31.5172753  65.7928903  31.8938553  31.9332753  66.3018903
  33.2008553  31.9822753  65.8878903  32.4918553  31.6472753  65.8818903
  44.5018553  26.2902753  55.3578903  44.5698553  25.4402753  55.5388903
  43.6788553  26.3762753  55.0798903  44.3898553  26.1772753  55.3438903
  34.2538553  34.7842753  54.5678903  34.1088553  34.9402753  53.7218903
  35.1198553  34.8632753  54.6458903  34.3608553  34.8192753  54.4548903
  38.4208553  27.1812753  54.2958903  38.5208553  27.3202753  53.4408903
  39.2388553  27.1212753  54.5918903  38.5558553  27.1922753  54.2128903
  47.7758553  27.6632753  68.5088903  48.4098553  27.4932753  69.0828903
  48.1928553  28.0662753  67.8568903  47.9308553  27.6982753  68.4978903
  43.6558553  31.5102753  54.0978903  43.4048553  31.3822753  54.9238903
  43.3388553  30.8152753  53.6768903  43.5718553  31.3892753  54.1578903
  48.4008553  22.2272753  69.2468903  48.2048553  22.8712753  69.8018903
  47.6788553  21.7372753  69.2388903  48.2658553  22.2502753  69.3278903
  48.2998553  23.1682753  62.2178903  47.4668553  23.4182753  62.1458903
  48.2438553  22.3282753  62.4468903  48.1688553  23.0812753  62.2408903
  37.5598553  20.1562753  67.4118903  37.7938553  19.5802753  66.7988903
  36.7178553  19.9752753  67.5528903  37.4698553  20.0442753  67.3418903
  45.1868553  27.7742753  69.8638903  46.0578553  27.7382753  69.8278903
  44.9678553  28.1942753  69.1318903  45.2838553  27.8302753  69.7508903
  34.9408553  33.5992753  61.0448903  34.8618553  32.7892753  60.7288903
  34.4968553  34.0862753  60.4728903  34.8638553  33.5512753  60.9138903
  40.5418553  29.7182753  53.5278903  41.2588553  29.3712753  53.1718903
  40.5078553  30.5182753  53.1798903  40.6428553  29.7852753  53.4238903
  32.5128553  35.8432753  64.6258903  33.0058553  35.7872753  65.3438903
  32.7008553  35.1102753  64.1908903  32.6138553  35.7262753  64.6678903
  41.2448553  24.3322753  48.5336493  40.3968553  24.2332753  48.3556493
  41.2738553  25.0772753  48.9876493  41.1238553  24.4282753  48.5746493
  35.6128553  19.8652753  37.6396493  35.3168553  20.3662753  36.9896493
  36.4798553  19.9432753  37.5826493  35.6968553  19.9512753  37.5356493
  45.8028553  17.2922753  47.6476493  45.6448553  18.0612753  47.2656493
  45.0308553  17.0722753  47.9916493  45.6648553  17.3732753  47.6426493
  43.2648553  21.9332753  32.1616493  42.8148553  22.6142753  32.4686493
  43.3788553  21.4292753  32.8646493  43.2158553  21.9592753  32.3106493
  34.4998553  19.2492753  41.8546493  33.9788553  18.6212753  41.5466493
  35.0908553  18.8122753  42.3256493  34.5108553  19.0912753  41.8786493
  37.8058553  21.3822753  51.1526493  37.9228553  20.9282753  50.4166493
  38.0938553  22.1802753  50.9496493  37.8658553  21.4332753  51.0136493
  33.5388553  20.9792753  50.1366493  32.7608553  20.5892753  50.0646493
  34.0298553  20.5672753  49.5456493  33.4958553  20.8602753  50.0386493
  40.1878553  18.6222753  49.3046493  40.3658553  17.8132753  49.0296493
  40.0448553  19.0632753  48.5656493  40.1928553  18.5682753  49.1546493
  30.8868553  21.5272753  47.7226493  30.8828553  22.1142753  48.3686493
  31.4808553  21.8392753  47.1656493  30.9738553  21.6602753  47.7356493
  31.8238553  21.1222753  36.6376493  31.7098553  20.2582753  36.6686493
  31.3488553  21.4162753  37.3076493  31.7368553  21.0382753  36.7406493
  34.3338553  17.4612753  38.1436493  34.8698553  18.1492753  38.1336493
  34.3368553  17.1872753  37.3156493  34.4128553  17.5222753  38.0196493
  38.7768553  24.0582753  50.9976493  38.2928553  24.6352753  51.4396493
  38.7488553  24.3532753  50.1766493  38.7008553  24.1872753  50.9416493
  38.4838553  21.4302753  34.8626493  38.4818553  21.3132753  33.9976493
  38.3028553  22.2782753  34.9546493  38.4568553  21.5382753  34.7486493
  34.3518553  24.8652753  49.3566493  33.8158553  24.3592753  49.8246493
  34.3718553  24.4752753  48.5766493  34.2748553  24.7322753  49.3106493
  36.8858553  18.4922753  34.1306493  36.9828553  18.3852753  34.9916493
  36.1778553  18.9982753  34.0656493  36.7958553  18.5512753  34.2486493
  47.6148553  18.2332753  49.5276493  46.9778553  17.8332753  49.0856493
  47.6408553  17.8022753  50.2856493  47.5248553  18.1112753  49.5736493
  31.0048553  18.4602753  36.3416493  31.1338553  17.7522753  35.8496493
  30.6378553  18.1422753  37.0666493  30.9698553  18.3082753  36.3766493
  31.2798553  20.2552753  41.6676493  31.3238553  20.5992753  40.8666493
  32.0348553  20.4922753  42.0346493  31.3978553  20.3412753  41.6036493
  44.2648553  24.9762753  49.8396493  44.3378553  25.0802753  50.7026493
  43.6308553  25.5342753  49.6186493  44.1818553  25.0742753  49.9346493
  49.2308553  25.8372753  50.9396493  49.1788553  25.4962753  50.1386493
  49.9678553  26.3042753  50.9176493  49.3318553  25.8562753  50.8176493
  35.8818553  29.6942753  47.8396493  35.0758553  29.4042753  48.0066493
  35.7928553  30.5622753  47.8456493  35.7498553  29.7792753  47.8646493
  38.8808553  18.5782753  46.5536493  39.5858553  18.8982753  46.1516493
  39.1218553  17.7712753  46.7806493  39.0198553  18.5062753  46.5276493
  42.1748553  29.4222753  49.5386493  42.9318553  29.7082753  49.2126493
  41.6278553  29.4742753  48.8606493  42.2058553  29.4722753  49.3896493
  31.5018553  19.0142753  48.6966493  31.3618553  19.8092753  48.3656493
  30.7158553  18.7712753  48.9856493  31.3648553  19.0962753  48.6906493
  41.6898553  26.7672753  50.1316493  42.0128553  27.4532753  49.6996493
  40.9858553  27.0902753  50.5336493  41.6328553  26.9162753  50.1266493
  34.8718553  19.6272753  48.0236493  34.7908553  18.7832753  48.2296493
  34.5578553  19.6712753  47.2106493  34.8138553  19.5092753  47.9336493
  42.8578553  19.8032753  49.1906493  42.9498553  20.5152753  49.6846493
  42.2208553  19.3582753  49.5876493  42.7768553  19.8422753  49.3226493
  39.3088553  18.0412753  32.8766493  39.3868553  18.2882753  32.0436493
  38.5658553  18.4182753  33.1346493  39.2108553  18.1332753  32.7916493
  48.4008553  22.2272753  50.2406493  48.2048553  22.8712753  50.7956493
  47.6788553  21.7372753  50.2326493  48.2658553  22.2502753  50.3216493
  41.9508553  18.3592753  18.7604083  41.7058553  18.8472753  18.0804083
  42.8138553  18.2862753  18.6604083  42.0418553  18.4202753  18.6454083
  41.7598553  25.2752753  23.4314083  41.2358553  25.8712753  23.7944083
  42.1568553  24.9072753  24.1154083  41.7408553  25.3092753  23.5864083
  31.6288553  29.4152753  18.8874083  31.1878553  29.5332753  19.6304083
  31.3458553  28.6402753  18.6024083  31.5218553  29.3182753  18.9554083
  31.3718553  23.2072753  15.3944083  30.5938553  23.3692753  15.0344083
  31.4108553  22.3362753  15.4164083  31.2628553  23.1022753  15.3444083
  34.5108553  28.4702753  14.0664083  34.1188553  28.0992753  13.3804083
  34.4308553  27.8722753  14.6954083  34.4408553  28.3272753  14.0574083
  34.1378553  30.1112753  17.9664083  34.7458553  29.9412753  18.5694083
  33.3868553  29.9712753  18.3874083  34.1168553  30.0652753  18.1174083
  38.4198553  19.4462753  17.9154083  38.3498553  20.1232753  17.3694083
  39.1608553  19.0582753  17.6664083  38.5188553  19.4892753  17.7974083
  33.0288553  33.2022753  14.0434083  33.4958553  33.2862753  13.3114083
  33.4838553  32.6242753  14.5124083  33.1648553  33.1292753  14.0044083
  33.0148553  26.6712753  19.3444083  32.5528553  26.2792753  18.7174083
  33.7148553  26.1582753  19.4364083  33.0498553  26.5382753  19.2654083
  37.5228553  22.2812753  24.6914083  38.2008553  22.2992753  24.1424083
  37.4778553  21.4452753  24.9364083  37.6158553  22.1602753  24.6464083
  35.0158553  24.7712753  19.3674083  35.8328553  24.5842753  19.6104083
  34.5388553  24.1572753  19.7634083  35.0658553  24.6532753  19.4624083
  39.2768553  30.2012753  18.1884083  39.6078553  29.5572753  18.6744083
  39.5168553  29.9902753  17.3774083  39.3608553  30.0752753  18.1404083
  35.6128553  19.8652753  18.6334083  35.3168553  20.3662753  17.9834083
  36.4798553  19.9432753  18.5764083  35.6968553  19.9512753  18.5294083
  45.8028553  17.2922753  28.6414083  45.6448553  18.0612753  28.2594083
  45.0308553  17.0722753  28.9854083  45.6648553  17.3732753  28.6364083
  38.5918553  19.0072753  20.8564083  38.6648553  19.8672753  20.9854083
  38.5538553  18.9322753  19.9884083  38.5968553  19.1232753  20.7474083
  43.2648553  21.9332753  13.1554083  42.8148553  22.6142753  13.4624083
  43.3788553  21.4292753  13.8584083  43.2158553  21.9592753  13.3044083
  31.4708553  24.4322753  22.3574083  31.2148553  25.2632753  22.2824083
  30.8068553  24.0492753  22.7744083  31.3348553  24.4982753  22.4084083
  31.3808553  34.1422753  20.2574083  30.7888553  34.7002753  19.9444083
  31.8068553  33.8732753  19.5454083  31.3568553  34.1842753  20.1064083
  37.2208553  31.9862753  17.7374083  36.6418553  31.7112753  18.3294083
  37.8448553  31.3772753  17.7624083  37.2278553  31.8562753  17.8284083
  34.4998553  19.2492753  22.8484083  33.9788553  18.6212753  22.5404083
  35.0908553  18.8122753  23.3194083  34.5108553  19.0912753  22.8724083
  37.8058553  21.3822753  32.1464083  37.9228553  20.9282753  31.4104083
  38.0938553  22.1802753  31.9434083  37.8658553  21.4332753  32.0074083
  32.9258553  32.8122753  18.1884083  33.5818553  32.2372753  18.2034083
  33.3148553  33.5612753  17.9674083  33.0808553  32.8372753  18.1584083
  48.6588553  21.9062753  19.4504083  48.3128553  22.5842753  19.8764083
  48.0228553  21.3082753  19.4664083  48.5138553  21.9182753  19.5154083
  33.7438553  31.2992753  21.6884083  34.1668553  30.9432753  21.0144083
  34.0678553  30.8772753  22.3804083  33.8538553  31.1842753  21.6914083
  40.1878553  18.6222753  30.2984083  40.3658553  17.8132753  30.0234083
  40.0448553  19.0632753  29.5594083  40.1928553  18.5682753  30.1484083
  40.7818553  23.5482753  19.0714083  41.0688553  23.3162753  18.2814083
  41.5138553  23.6272753  19.5404083  40.9318553  23.5252753  19.0244083
  41.5038553  23.8872753  14.1924083  41.7848553  24.6752753  14.4414083
  40.7278553  24.0522753  13.8294083  41.4308553  24.0282753  14.1754083
  48.3338553  20.2292753  24.8194083  49.0908553  20.3012753  24.3914083
  48.3968553  19.4562753  25.2184083  48.4548553  20.1262753  24.8144083
  40.3628553  32.0582753  14.0084083  40.1818553  32.6032753  14.6654083
  41.1288553  32.3482753  13.7074083  40.4488553  32.1822753  14.0614083
  43.8698553  19.9542753  15.0624083  44.4098553  19.2722753  15.1384083
  43.9318553  20.3522753  15.8364083  43.9588553  19.9122753  15.1884083
  31.8238553  21.1222753  17.6314083  31.7098553  20.2582753  17.6624083
  31.3488553  21.4162753  18.3014083  31.7368553  21.0382753  17.7344083
  41.1278553  22.3302753  16.3764083  40.6198553  21.6682753  16.1224083
  41.1798553  22.8342753  15.6664083  41.0608553  22.3072753  16.2344083
  41.1278553  19.2712753  16.2674083  40.6728553  18.8692753  15.6414083
  41.9008553  19.4262753  15.8924083  41.1748553  19.2352753  16.1194083
  39.7258553  21.6382753  20.7894083  39.7998553  22.2062753  20.1314083
  39.8468553  22.1302753  21.4994083  39.7538553  21.7952753  20.7974083
  34.3338553  17.4612753  19.1374083  34.8698553  18.1492753  19.1274083
  34.3368553  17.1872753  18.3094083  34.4128553  17.5222753  19.0134083
  37.2898553  27.8942753  23.1624083  37.4618553  27.6842753  23.9914083
  36.6348553  27.3602753  22.9464083  37.2188553  27.7842753  23.2534083
  43.5178553  21.8082753  26.6774083  43.4228553  22.1272753  27.4834083
  42.9248553  21.1692753  26.6394083  43.4158553  21.7602753  26.7914083
  44.7738553  17.7522753  19.5134083  44.8228553  17.4342753  20.3244083
  45.0968553  17.1082753  19.0204083  44.8288553  17.6102753  19.5604083
  34.7818553  21.2712753  20.7914083  35.0538553  20.8412753  20.0834083
  34.6058553  20.6352753  21.3624083  34.7958553  21.1142753  20.7714083
  34.6058553  28.6982753  20.3404083  35.4568553  28.6182753  20.1674083
  34.2488553  28.0162753  19.9284083  34.6788553  28.5852753  20.2534083
  33.3728553  35.4232753  21.5774083  32.6998553  34.9252753  21.3324083
  33.7758553  35.6082753  20.8264083  33.3328553  35.3772753  21.4304083
  32.9228553  22.3732753  23.8734083  33.7658553  22.5932753  23.8304083
  32.5338553  22.9462753  23.3424083  32.9898553  22.4902753  23.7884083
  45.3648553  25.5032753  14.5944083  45.1448553  26.2342753  14.1724083
  44.9168553  25.5542753  15.3414083  45.2658553  25.6182753  14.6424083
  36.9738553  28.7052753  18.5754083  37.6868553  29.2002753  18.6654083
  37.1958553  28.1382753  17.9494083  37.1118553  28.6942753  18.4964083
  49.5518553  20.3642753  14.0474083  48.8898553  19.7962753  14.0704083
  49.3588553  20.8762753  13.3674083  49.4258553  20.3562753  13.9504083
  31.1298553  30.3482753  21.8954083  30.4628553  30.8362753  22.1714083
  31.8098553  30.8932753  21.9244083  31.1318553  30.5002753  21.9404083
  31.1958553  27.0322753  16.9984083  31.0108553  26.1932753  17.1504083
  31.8548553  26.9962753  16.4284083  31.2658553  26.9032753  16.9364083
  47.5538553  19.9222753  16.3264083  48.2998553  19.5152753  16.5254083
  47.8168553  20.6372753  15.9014083  47.7028553  19.9682753  16.2934083
  31.3678553  31.1962753  16.5734083  31.9198553  31.7652753  16.9374083
  31.1358553  30.6812753  17.2384083  31.4148553  31.2042753  16.7254083
  35.5718553  30.1962753  23.6624083  36.0388553  30.4852753  24.3404083
  36.1438553  29.7182753  23.2084083  35.7258553  30.1682753  23.6954083
  44.0078553  22.2102753  21.3994083  44.3518553  22.3622753  22.1864083
  43.5548553  21.4722753  21.5124083  43.9918553  22.1232753  21.5324083
  31.1978553  29.6452753  14.2014083  31.9538553  29.2132753  14.2594083
  31.2128553  30.1772753  14.8924083  31.3118553  29.6602753  14.3124083
  32.1378553  27.8662753  22.2064083  32.5688553  27.7372753  21.4594083
  31.9328553  28.7142753  22.1804083  32.1708553  27.9722753  22.0924083
  38.4838553  21.4302753  15.8564083  38.4818553  21.3132753  14.9914083
  38.3028553  22.2782753  15.9484083  38.4568553  21.5382753  15.7424083
  36.2218553  31.3822753  20.4884083  36.3478553  32.2252753  20.6754083
  36.8898553  30.9832753  20.8844083  36.3398553  31.4482753  20.5744083
  34.8368553  24.2622753  15.4904083  34.7088553  23.8142753  16.2284083
  34.2548553  23.9202753  14.9384083  34.7318553  24.1452753  15.5184083
  35.0038553  26.0922753  22.0894083  34.2228553  26.0332753  21.7064083
  35.0758553  25.3402753  22.5264083  34.8988553  25.9732753  22.0974083
  41.9738553  19.4482753  27.3824083  42.1228553  18.6232753  27.1394083
  42.3528553  19.5032753  28.1664083  42.0518553  19.3342753  27.4624083
  43.5218553  21.5112753  17.4644083  44.0118553  22.2282753  17.3874083
  42.7318553  21.7722753  17.2014083  43.4778553  21.6552753  17.4144083
  40.1038553  22.9812753  23.1894083  40.5838553  23.6802753  23.3974083
  40.4768553  22.3342753  23.6404083  40.2298553  22.9892753  23.2864083
  42.2928553  26.1502753  15.4634083  42.2848553  26.8722753  14.9734083
  41.6538553  26.2852753  16.0404083  42.1978553  26.2772753  15.4764083
  36.8858553  18.4922753  15.1244083  36.9828553  18.3852753  15.9854083
  36.1778553  18.9982753  15.0594083  36.7958553  18.5512753  15.2424083
  47.6148553  18.2332753  30.5214083  46.9778553  17.8332753  30.0794083
  47.6408553  17.8022753  31.2794083  47.5248553  18.1112753  30.5674083
  34.0078553  26.7992753  16.3674083  34.3318553  26.0202753  16.1454083
  34.6538553  27.1672753  16.8224083  34.1508553  26.7382753  16.4014083
  31.0048553  18.4602753  17.3354083  31.1338553  17.7522753  16.8434083
  30.6378553  18.1422753  18.0604083  30.9698553  18.3082753  17.3704083
  40.6978553  26.1412753  17.7924083  40.7568553  26.7912753  18.3714083
  40.5088553  25.4452753  18.2834083  40.6788553  26.1342753  17.9504083
  35.1938553  20.6582753  14.3044083  34.6828553  20.7112753  13.5984083
  35.9778553  20.8982753  14.0084083  35.2338553  20.7012753  14.1564083
  39.9208553  28.1882753  22.2234083  39.0738553  27.9942753  22.3044083
  40.2448553  28.0232753  23.0164083  39.8428553  28.1352753  22.3524083
  36.6728553  34.9182753  13.1094083  37.1118553  34.2212753  13.3974083
  36.8798553  35.5422753  13.6824083  36.7688553  34.9072753  13.2364083
  33.7688553  27.8812753  24.5394083  34.4908553  28.3692753  24.5024083
  33.4988553  27.8512753  23.7104083  33.8358553  27.9492753  24.4114083
  36.9988553  23.0522753  21.2744083  37.8448553  22.8622753  21.3724083
  36.6288553  22.2752753  21.1364083  37.0688553  22.9092753  21.2684083
  31.8198553  24.3902753  17.9294083  32.3088553  24.0982753  18.5904083
  31.9488553  23.7972753  17.3024083  31.9108553  24.2592753  17.9344083
  36.3448553  25.8242753  13.4154083  35.7348553  25.4192753  13.8894083
  35.9588553  25.9422753  12.6424083  36.1978553  25.7812753  13.3714083
  37.7998553  24.2852753  16.1254083  38.0718553  25.1112753  16.1924083
  36.9368553  24.3602753  16.0294083  37.7128553  24.4182753  16.1204083
  31.2798553  20.2552753  22.6614083  31.3238553  20.5992753  21.8604083
  32.0348553  20.4922753  23.0284083  31.3978553  20.3412753  22.5974083
  45.8468553  31.7192753  14.7284083  46.1808553  30.9132753  14.7634083
  45.0918553  31.6472753  15.1584083  45.7848553  31.5892753  14.7974083
  46.3288553  23.5532753  20.3874083  45.5838553  23.2302753  20.7054083
  46.3308553  24.3792753  20.6674083  46.2188553  23.6272753  20.4754083
  43.2208553  29.5942753  14.1314083  43.9048553  29.0802753  13.9624083
  42.8038553  29.6402753  13.3664083  43.2598553  29.5252753  13.9934083
  45.2408553  19.8832753  27.8484083  45.9848553  20.3352753  27.7854083
  44.6748553  20.3532753  27.3794083  45.2678553  20.0202753  27.7704083
  37.1288553  22.7702753  27.6674083  37.2898553  22.0262753  28.0944083
  37.0838553  22.5212753  26.8324083  37.1458553  22.6232753  27.6074083
  46.5258553  17.8632753  25.5184083  46.2458553  18.6882753  25.4744083
  47.2418553  17.9162753  26.0144083  46.5908553  17.9932753  25.5854083
  38.8808553  18.5782753  27.5474083  39.5858553  18.8982753  27.1454083
  39.1218553  17.7712753  27.7744083  39.0198553  18.5062753  27.5214083
  47.9468553  24.1182753  14.3754083  48.3248553  24.7952753  13.9754083
  47.1048553  24.3422753  14.4064083  47.8778553  24.2512753  14.3204083
  39.4598553  27.5642753  13.4584083  38.6548553  27.3872753  13.1734083
  39.4268553  28.4152753  13.6504083  39.3358553  27.6632753  13.4454083
  35.3898553  23.6312753  23.6084083  35.8298553  23.5282753  22.8624083
  35.9348553  23.3182753  24.2134083  35.5348553  23.5702753  23.5874083
  45.6418553  23.7172753  17.7504083  45.8488553  23.5162753  18.5744083
  46.3978553  23.9852753  17.4084083  45.7838553  23.7272753  17.8214083
  38.9368553  18.6162753  23.6554083  38.1108553  18.4672753  23.8924083
  38.8968553  18.6512753  22.7844083  38.8088553  18.5992753  23.5614083
  46.6638553  19.8002753  19.2244083  45.9498553  19.3292753  19.3954083
  46.5018553  20.1412753  18.4384083  46.5348553  19.7812753  19.1334083
  47.1068553  27.7442753  17.6044083  47.5828553  27.0152753  17.5564083
  46.2858553  27.4582753  17.5284083  47.0558553  27.5942753  17.5854083
  31.5018553  19.0142753  29.6904083  31.3618553  19.8092753  29.3594083
  30.7158553  18.7712753  29.9794083  31.3648553  19.0962753  29.6844083
  34.5658553  21.7582753  16.9154083  34.6918553  21.4292753  16.1174083
  33.7538553  21.5092753  17.1144083  34.4648553  21.6732753  16.8274083
  40.8448553  28.1852753  19.5244083  40.5468553  27.8702753  20.2814083
  41.5398553  28.6582753  19.7594083  40.9038553  28.2082753  19.6714083
  34.5428553  23.7692753  27.3314083  34.9178553  24.3882753  26.8444083
  35.2168553  23.2952753  27.6164083  34.6978553  23.7912753  27.3014083
  32.3178553  22.2172753  26.6064083  32.3948553  22.0482753  25.7534083
  33.0638553  22.6232753  26.8034083  32.4388553  22.2522753  26.5094083
  47.8768553  24.8572753  17.0464083  47.9798553  24.7992753  16.1824083
  48.6178553  24.5252753  17.3644083  48.0018553  24.8002753  16.9654083
  34.8718553  19.6272753  29.0174083  34.7908553  18.7832753  29.2234083
  34.5578553  19.6712753  28.2044083  34.8138553  19.5092753  28.9274083
  33.1708553  23.3792753  13.4484083  32.4988553  23.3932753  14.0044083
  33.2658553  22.5312753  13.2644083  33.0858553  23.2562753  13.5034083
  42.8578553  19.8032753  30.1844083  42.9498553  20.5152753  30.6784083
  42.2208553  19.3582753  30.5814083  42.7768553  19.8422753  30.3164083
  41.8518553  19.9932753  21.0384083  41.1518553  20.5112753  20.9824083
  41.8898553  19.6132753  20.2544083  41.7538553  20.0142753  20.9144083
  37.1588553  32.0842753  14.5624083  37.5998553  32.1642753  15.3104083
  36.3538553  31.8682753  14.8204083  37.1048553  32.0642753  14.7114083
  45.4498553  20.5092753  23.8384083  46.3048553  20.6082753  23.9834083
  45.0808553  21.0622753  24.4034083  45.5218553  20.6062753  23.9434083
  34.4878553  31.1542753  15.1634083  34.2438553  30.8472753  15.9434083
  34.4548553  30.4512753  14.6474083  34.4468553  31.0052753  15.2024083
  37.3068553  29.3992753  13.9064083  36.4888553  29.1312753  14.0464083
  37.2788553  30.2512753  14.0914083  37.1818553  29.4862753  13.9544083
  36.9068553  19.7122753  25.6654083  36.0428553  19.7962753  25.7454083
  37.1268553  19.1982753  26.3344083  36.8118553  19.6492753  25.7764083
  48.9248553  18.3472753  26.9944083  48.8728553  18.3032753  27.8644083
  49.6118553  17.8442753  26.8044083  49.0188553  18.2672753  27.0944083
  41.0098553  20.4602753  24.0394083  40.2728553  20.0062753  24.1524083
  41.5808553  20.0582753  24.5624083  40.9848553  20.3332753  24.1334083
  39.3088553  18.0412753  13.8704083  39.3868553  18.2882753  13.0374083
  38.5658553  18.4182753  14.1284083  39.2108553  18.1332753  13.7854083
  34.1268553  19.7952753  26.3134083  33.7838553  19.0282753  26.0794083
  33.4318553  20.3192753  26.3774083  33.9738553  19.7592753  26.2884083
  43.1728553  18.6512753  23.2904083  43.8428553  19.1952753  23.4174083
  42.6698553  19.0752753  22.7174083  43.1978553  18.7942753  23.2244083
  42.5318553  24.4592753  20.7834083  43.0828553  23.8522753  21.0834083
  42.1068553  24.7222753  21.4984083  42.5508553  24.4082753  20.9324083
  32.7798553  23.1092753  20.2694083  32.4118553  23.4112753  21.0004083
  33.3138553  22.4802753  20.5534083  32.8038553  23.0612753  20.4194083
  44.5018553  26.2902753  17.3454083  44.5698553  25.4402753  17.5264083
  43.6788553  26.3762753  17.0674083  44.3898553  26.1772753  17.3314083
  34.2538553  34.7842753  16.5554083  34.1088553  34.9402753  15.7094083
  35.1198553  34.8632753  16.6334083  34.3608553  34.8192753  16.4424083
  38.4208553  27.1812753  16.2834083  38.5208553  27.3202753  15.4284083
  39.2388553  27.1212753  16.5794083  38.5558553  27.1922753  16.2004083
  43.6558553  31.5102753  16.0854083  43.4048553  31.3822753  16.9114083
  43.3388553  30.8152753  15.6644083  43.5718553  31.3892753  16.1454083
  37.5598553  20.1562753  29.3994083  37.7938553  19.5802753  28.7864083
  36.7178553  19.9752753  29.5404083  37.4698553  20.0442753  29.3294083
  40.5418553  29.7182753  15.5154083  41.2588553  29.3712753  15.1594083
  40.5078553  30.5182753  15.1674083  40.6428553  29.7852753  15.4114083
  41.7598553  25.2752753   4.4251673  41.2358553  25.8712753   4.7881673
  42.1568553  24.9072753   5.1091673  41.7408553  25.3092753   4.5801673
  31.5688553  32.1502753   6.1361673  31.6978553  31.8702753   6.9521673
  30.9588553  31.6092753   5.8271673  31.4978553  32.0292753   6.2111673
  38.1428553  29.6752753  11.2031673  37.9068553  29.6722753  12.0431673
  37.3948553  29.5272753  10.7791673  37.9968553  29.6522753  11.2641673
  37.5228553  22.2812753   5.6851673  38.2008553  22.2992753   5.1361673
  37.4778553  21.4452753   5.9301673  37.6158553  22.1602753   5.6401673
  38.1248553  32.8672753   8.4661673  38.2628553  33.6272753   8.0591673
  38.9158553  32.5022753   8.4931673  38.2618553  32.9262753   8.4101673
  39.2198553  30.7522753   2.9711673  39.5678553  29.9532753   3.0011673
  39.8848553  31.2562753   2.7161673  39.3698553  30.7082753   2.9381673
  41.2448553  24.3322753  10.5211673  40.3968553  24.2332753  10.3431673
  41.2738553  25.0772753  10.9751673  41.1238553  24.4282753  10.5621673
  45.8028553  17.2922753   9.6351673  45.6448553  18.0612753   9.2531673
  45.0308553  17.0722753   9.9791673  45.6648553  17.3732753   9.6301673
  31.4708553  24.4322753   3.3511673  31.2148553  25.2632753   3.2761673
  30.8068553  24.0492753   3.7681673  31.3348553  24.4982753   3.4021673
  34.4998553  19.2492753   3.8421673  33.9788553  18.6212753   3.5341673
  35.0908553  18.8122753   4.3131673  34.5108553  19.0912753   3.8661673
  37.8058553  21.3822753  13.1401673  37.9228553  20.9282753  12.4041673
  38.0938553  22.1802753  12.9371673  37.8658553  21.4332753  13.0011673
  43.9708553  34.6762753   6.5481673  44.7148553  35.1322753   6.5381673
  43.8498553  34.4622753   5.7111673  44.0628553  34.7122753   6.4231673
  33.5388553  20.9792753  12.1241673  32.7608553  20.5892753  12.0521673
  34.0298553  20.5672753  11.5331673  33.4958553  20.8602753  12.0261673
  33.7438553  31.2992753   2.6821673  34.1668553  30.9432753   2.0081673
  34.0678553  30.8772753   3.3741673  33.8538553  31.1842753   2.6851673
  36.9748553  34.1512753   1.9781673  37.8188553  34.2552753   1.7831673
  36.6778553  34.9692753   2.0461673  37.0558553  34.2872753   1.9591673
  40.1878553  18.6222753  11.2921673  40.3658553  17.8132753  11.0171673
  40.0448553  19.0632753  10.5531673  40.1928553  18.5682753  11.1421673
  35.9728553  35.3702753   7.7181673  36.2648553  35.3032753   8.5381673
  35.3468553  34.7652753   7.6731673  35.9238553  35.2712753   7.8331673
  48.3338553  20.2292753   5.8131673  49.0908553  20.3012753   5.3851673
  48.3968553  19.4562753   6.2121673  48.4548553  20.1262753   5.8081673
  30.8868553  21.5272753   9.7101673  30.8828553  22.1142753  10.3561673
  31.4808553  21.8392753   9.1531673  30.9738553  21.6602753   9.7231673
  43.2248553  31.8612753  10.2521673  43.1908553  32.2432753  11.0361673
  44.0788553  31.8192753  10.0811673  43.3458553  31.9112753  10.3431673
  33.9658553  33.5322753   6.8401673  33.2678553  33.0242753   6.9661673
  34.2258553  33.3272753   6.0321673  33.9008553  33.4272753   6.7391673
  41.6768553  35.0252753   7.7501673  42.4448553  34.9452753   7.3441673
  41.0938553  34.9042753   7.1121673  41.7038553  34.9952753   7.5961673
  35.3268553  32.3832753   9.4071673  36.1678553  32.4462753   9.1851673
  35.2898553  32.7802753  10.1831673  35.4458553  32.4512753   9.4891673
  37.2898553  27.8942753   4.1561673  37.4618553  27.6842753   4.9851673
  36.6348553  27.3602753   3.9401673  37.2188553  27.7842753   4.2471673
  43.5178553  21.8082753   7.6711673  43.4228553  22.1272753   8.4771673
  42.9248553  21.1692753   7.6331673  43.4158553  21.7602753   7.7851673
  38.0398553  27.8322753   6.7461673  38.0928553  28.6792753   6.9481673
  37.7548553  27.4622753   7.4831673  38.0058553  27.9022753   6.8841673
  44.2168553  28.5272753   5.8761673  43.7028553  28.1152753   6.4471673
  44.0908553  29.3712753   6.0571673  44.1228553  28.5912753   5.9871673
  30.8608553  32.2032753  12.9571673  31.6168553  32.5522753  13.2151673
  31.0378553  31.3502753  12.9001673  30.9988553  32.1282753  12.9871673
  47.2378553  21.9882753   8.8151673  48.0098553  21.7632753   9.1521673
  46.7628553  22.2052753   9.5151673  47.2818553  21.9872753   8.9681673
  33.3728553  35.4232753   2.5711673  32.6998553  34.9252753   2.3261673
  33.7758553  35.6082753   1.8201673  33.3328553  35.3772753   2.4241673
  32.9228553  22.3732753   4.8671673  33.7658553  22.5932753   4.8241673
  32.5338553  22.9462753   4.3361673  32.9898553  22.4902753   4.7821673
  49.7038553  33.4752753  10.2571673  49.0218553  33.7852753   9.8101673
  49.3348553  33.0172753  10.9021673  49.5478553  33.4532753  10.2861673
  31.1298553  30.3482753   2.8891673  30.4628553  30.8362753   3.1651673
  31.8098553  30.8932753   2.9181673  31.1318553  30.5002753   2.9341673
  38.7768553  24.0582753  12.9851673  38.2928553  24.6352753  13.4271673
  38.7488553  24.3532753  12.1641673  38.7008553  24.1872753  12.9291673
  49.8748553  24.7422753   7.5971673  50.0898553  23.9422753   7.3211673
  49.0248553  24.8022753   7.4081673  49.7808553  24.6332753   7.5281673
  35.5718553  30.1962753   4.6561673  36.0388553  30.4852753   5.3341673
  36.1438553  29.7182753   4.2021673  35.7258553  30.1682753   4.6891673
  44.0078553  22.2102753   2.3931673  44.3518553  22.3622753   3.1801673
  43.5548553  21.4722753   2.5061673  43.9918553  22.1232753   2.5261673
  32.1378553  27.8662753   3.2001673  32.5688553  27.7372753   2.4531673
  31.9328553  28.7142753   3.1741673  32.1708553  27.9722753   3.0861673
  47.5378553  33.8572753   8.3471673  46.8668553  34.3712753   8.5651673
  47.6008553  33.9572753   7.4831673  47.4478553  33.9482753   8.2521673
  34.3518553  24.8652753  11.3441673  33.8158553  24.3592753  11.8121673
  34.3718553  24.4752753  10.5641673  34.2748553  24.7322753  11.2981673
  35.0038553  26.0922753   3.0831673  34.2228553  26.0332753   2.7001673
  35.0758553  25.3402753   3.5201673  34.8988553  25.9732753   3.0911673
  35.4338553  25.8292753   6.5511673  35.4588553  25.1542753   6.0001673
  34.7878553  26.3252753   6.2391673  35.3428553  25.8022753   6.4241673
  45.3288553  23.5422753   4.9471673  44.6668553  23.8702753   5.4101673
  45.5158553  24.1762753   4.3781673  45.2588553  23.6842753   4.9311673
  39.5338553  34.6062753   5.9431673  39.2568553  33.9652753   5.4201673
  39.3258553  35.3322753   5.5051673  39.4628553  34.6192753   5.8011673
  41.9738553  19.4482753   8.3761673  42.1228553  18.6232753   8.1331673
  42.3528553  19.5032753   9.1601673  42.0518553  19.3342753   8.4561673
  33.2328553  27.1842753  12.1101673  33.1958553  27.6852753  11.3961673
  33.5638553  26.4322753  11.8151673  33.2758553  27.1462753  11.9611673
  44.8358553  29.3892753  10.3681673  45.3198553  30.1072753  10.4661673
  45.2298553  28.9622753   9.7171673  44.9658553  29.4322753  10.2861673
  39.1318553  32.2342753  11.5451673  39.4858553  32.0562753  12.3221673
  38.6958553  31.5052753  11.3461673  39.1198553  32.1002753  11.6311673
  40.1038553  22.9812753   4.1831673  40.5838553  23.6802753   4.3911673
  40.4768553  22.3342753   4.6341673  40.2298553  22.9892753   4.2801673
  43.3098553  33.0862753   4.2821673  42.7068553  32.7902753   3.7251673
  43.8548553  33.5382753   3.7731673  43.3008553  33.1092753   4.1241673
  43.3228553  29.9372753   3.6821673  42.5258553  30.1612753   3.9561673
  43.5808553  29.3432753   4.2671673  43.2428553  29.8822753   3.8091673
  46.5828553  27.9352753   8.5281673  46.6378553  28.0602753   7.6661673
  47.3358553  28.2552753   8.8301673  46.7018553  28.0002753   8.4451673
  42.7738553  33.2842753  12.8051673  42.9378553  33.5672753  13.6141673
  43.0368553  33.9452753  12.3001673  42.8368553  33.4242753  12.8501673
  47.6148553  18.2332753  11.5151673  46.9778553  17.8332753  11.0731673
  47.6408553  17.8022753  12.2731673  47.5248553  18.1112753  11.5611673
  42.3138553  27.7412753   8.1281673  42.1588553  28.3512753   8.7321673
  42.8478553  27.1832753   8.5341673  42.3698553  27.7492753   8.2771673
  45.9238553  30.4702753   4.6551673  45.4448553  30.7682753   3.9891673
  45.5678553  29.6942753   4.8331673  45.8008553  30.3992753   4.5831673
  39.9208553  28.1882753   3.2171673  39.0738553  27.9942753   3.2981673
  40.2448553  28.0232753   4.0101673  39.8428553  28.1352753   3.3461673
  33.7688553  27.8812753   5.5331673  34.4908553  28.3692753   5.4961673
  33.4988553  27.8512753   4.7041673  33.8358553  27.9492753   5.4051673
  36.9988553  23.0522753   2.2681673  37.8448553  22.8622753   2.3661673
  36.6288553  22.2752753   2.1301673  37.0688553  22.9092753   2.2621673
  46.8548553  27.4122753   5.7741673  46.8478553  26.6362753   6.1721673
  46.0138553  27.6462753   5.7671673  46.7298553  27.3322753   5.8321673
  33.1638553  28.9332753   9.8111673  32.7428553  28.4152753   9.2501673
  32.8118553  29.7192753   9.6681673  33.0498553  28.9732753   9.7071673
  48.1108553  27.4832753   3.2111673  47.8248553  27.8842753   3.9311673
  48.9708553  27.4212753   3.3381673  48.1958553  27.5332753   3.3361673
  45.7728553  21.4072753  11.7511673  45.2478553  21.8662753  12.2751673
  45.4118553  20.6122753  11.7451673  45.6418553  21.3572753  11.8271673
  31.2798553  20.2552753   3.6551673  31.3238553  20.5992753   2.8541673
  32.0348553  20.4922753   4.0221673  31.3978553  20.3412753   3.5911673
  49.2418553  33.1162753   3.7401673  49.5318553  33.3732753   2.9591673
  49.9368553  33.2122753   4.2591673  49.3878553  33.1682753   3.7011673
  44.2648553  24.9762753  11.8271673  44.3378553  25.0802753  12.6901673
  43.6308553  25.5342753  11.6061673  44.1818553  25.0742753  11.9221673
  46.5328553  25.2952753  10.1921673  46.8518553  26.0812753  10.3951673
  46.1628553  25.0252753  10.9351673  46.5258553  25.3712753  10.3321673
  49.2308553  25.8372753  12.9271673  49.1788553  25.4962753  12.1261673
  49.9678553  26.3042753  12.9051673  49.3318553  25.8562753  12.8051673
  48.7688553  29.5132753   9.1331673  49.3968553  28.9642753   8.8771673
  48.7078553  30.0782753   8.4711673  48.8528553  29.5162753   8.9971673
  37.9028553  30.7442753   6.4291673  37.6048553  31.3362753   6.9961673
  37.9578553  31.1862753   5.6801673  37.8668553  30.8972753   6.4021673
  35.8818553  29.6942753   9.8271673  35.0758553  29.4042753   9.9941673
  35.7928553  30.5622753   9.8331673  35.7498553  29.7792753   9.8521673
  45.2408553  19.8832753   8.8421673  45.9848553  20.3352753   8.7791673
  44.6748553  20.3532753   8.3731673  45.2678553  20.0202753   8.7641673
  40.4188553  27.1672753   5.9201673  40.8948553  27.5412753   6.5481673
  39.5958553  27.3012753   6.1791673  40.3678553  27.2422753   6.0511673
  37.1288553  22.7702753   8.6611673  37.2898553  22.0262753   9.0881673
  37.0838553  22.5212753   7.8261673  37.1458553  22.6232753   8.6011673
  46.5258553  17.8632753   6.5121673  46.2458553  18.6882753   6.4681673
  47.2418553  17.9162753   7.0081673  46.5908553  17.9932753   6.5791673
  38.8808553  18.5782753   8.5411673  39.5858553  18.8982753   8.1391673
  39.1218553  17.7712753   8.7681673  39.0198553  18.5062753   8.5151673
  37.8658553  32.7882753   4.5371673  37.2418553  33.3702753   4.3551673
  38.1138553  32.5022753   3.7511673  37.8098553  32.8322753   4.3941673
  42.1748553  29.4222753  11.5261673  42.9318553  29.7082753  11.2001673
  41.6278553  29.4742753  10.8481673  42.2058553  29.4722753  11.3771673
  46.0838553  31.9722753  10.0301673  46.4298553  32.2422753  10.7841673
  46.3778553  32.5542753   9.4501673  46.1788553  32.0982753  10.0561673
  35.3898553  23.6312753   4.6021673  35.8298553  23.5282753   3.8561673
  35.9348553  23.3182753   5.2071673  35.5348553  23.5702753   4.5811673
  43.4058553  22.7332753  10.1941673  42.7578553  23.2032753  10.5421673
  43.9708553  22.6442753  10.8531673  43.3938553  22.7892753  10.3431673
  43.0938553  24.2702753   6.4921673  43.3958553  24.6902753   7.1951673
  43.1298553  23.4302753   6.7241673  43.1438553  24.2082753   6.6301673
  40.5188553  34.4372753  10.4171673  40.9968553  33.8372753  10.0011673
  40.1678553  33.9942753  11.0821673  40.5378553  34.2832753  10.4541673
  38.9368553  18.6162753   4.6491673  38.1108553  18.4672753   4.8861673
  38.8968553  18.6512753   3.7781673  38.8088553  18.5992753   4.5551673
  40.5778553  29.6562753   9.4371673  39.7828553  29.5922753   9.7881673
  40.6488553  30.5032753   9.2421673  40.4708553  29.7712753   9.4601673
  31.5018553  19.0142753  10.6841673  31.3618553  19.8092753  10.3531673
  30.7158553  18.7712753  10.9731673  31.3648553  19.0962753  10.6781673
  36.4078553  35.8632753   4.7541673  36.4188553  35.9222753   5.6241673
  35.9828553  35.1162753   4.6041673  36.3468553  35.7612753   4.8601673
  41.0668553  32.3032753   8.5451673  41.7538553  32.1892753   9.0701673
  41.2008553  33.0942753   8.2011673  41.1878553  32.4032753   8.5721673
  49.2428553  24.9122753  10.3561673  48.3878553  24.7902753  10.4821673
  49.3958553  24.5172753   9.5931673  49.1388553  24.8352753  10.2621673
  43.7558553  25.5772753   8.9321673  43.5008553  24.8582753   9.3541673
  44.5768553  25.6932753   9.2021673  43.8398553  25.4882753   9.0341673
  33.1718553  35.3612753  10.1961673  32.5178553  34.7922753  10.2941673
  32.7968553  36.1342753  10.3471673  33.0198553  35.3912753  10.2331673
  41.6898553  26.7672753  12.1191673  42.0128553  27.4532753  11.6871673
  40.9858553  27.0902753  12.5211673  41.6328553  26.9162753  12.1141673
  44.7738553  35.1412753   3.0481673  44.3228553  35.7842753   3.4271673
  45.4818553  35.0622753   3.5531673  44.8118553  35.2242753   3.1791673
  41.4748553  30.2312753   5.9781673  40.7808553  30.6332753   6.3211673
  42.1518553  30.6642753   6.3171673  41.4718553  30.3542753   6.0791673
  46.8518553  32.8242753  12.5581673  47.6278553  32.4342753  12.6411673
  46.3828553  32.4882753  13.2131673  46.8968553  32.7172753  12.6671673
  34.5428553  23.7692753   8.3251673  34.9178553  24.3882753   7.8381673
  35.2168553  23.2952753   8.6101673  34.6978553  23.7912753   8.2951673
  32.3178553  22.2172753   7.6001673  32.3948553  22.0482753   6.7471673
  33.0638553  22.6232753   7.7971673  32.4388553  22.2522753   7.5031673
  34.8718553  19.6272753  10.0111673  34.7908553  18.7832753  10.2171673
  34.5578553  19.6712753   9.1981673  34.8138553  19.5092753   9.9211673
  46.9788553  25.0032753   7.3961673  46.9768553  24.1402753   7.5201673
  47.0458553  25.3272753   8.2031673  46.9888553  24.9232753   7.5331673
  31.7148553  27.4432753   7.8241673  32.0348553  27.6622753   7.0431673
  31.6148553  26.5782753   7.7691673  31.7468553  27.3482753   7.7011673
  42.8578553  19.8032753  11.1781673  42.9498553  20.5152753  11.6721673
  42.2208553  19.3582753  11.5751673  42.7768553  19.8422753  11.3101673
  45.4498553  20.5092753   4.8321673  46.3048553  20.6082753   4.9771673
  45.0808553  21.0622753   5.3971673  45.5218553  20.6062753   4.9371673
  36.4778553  26.7352753   9.2091673  36.0818553  27.5092753   9.2841673
  36.0718553  26.3622753   8.5331673  36.3598553  26.7942753   9.1201673
  45.7538553  25.7892753   3.3231673  46.4198553  26.3302753   3.4831673
  45.4088553  26.1002753   2.5841673  45.8008553  25.9152753   3.2381673
  36.9068553  19.7122753   6.6591673  36.0428553  19.7962753   6.7391673
  37.1268553  19.1982753   7.3281673  36.8118553  19.6492753   6.7701673
  48.9248553  18.3472753   7.9881673  48.8728553  18.3032753   8.8581673
  49.6118553  17.8442753   7.7981673  49.0188553  18.2672753   8.0881673
  41.0098553  20.4602753   5.0331673  40.2728553  20.0062753   5.1461673
  41.5808553  20.0582753   5.5561673  40.9848553  20.3332753   5.1271673
  43.7418553  31.3082753   6.8211673  43.9478553  31.6092753   7.6131673
  43.6808553  32.0302753   6.3361673  43.7628553  31.4592753   6.8661673
  43.2758553  35.5222753  11.0671673  42.5228553  35.5042753  10.6261673
  43.4438553  36.3742753  11.1511673  43.1898553  35.6452753  11.0141673
  38.5128553  24.7892753  10.2371673  38.1908553  24.2132753   9.6671673
  38.1538553  25.5442753   9.9911673  38.4128553  24.8152753  10.1171673
  48.5538553  29.9472753   6.2791673  48.5218553  29.0852753   6.1441673
  47.8608553  30.2492753   5.8451673  48.4468553  29.8642753   6.1951673
  36.9478553  35.1452753  10.4851673  36.9888553  35.2712753  11.3481673
  37.5988553  34.5852753  10.3291673  37.0498553  35.0812753  10.5901673
  46.6588553  33.2072753   5.0761673  47.1858553  33.1242753   4.3851673
  46.2678553  32.4292753   5.1301673  46.6788553  33.0802753   4.9821673
  34.1268553  19.7952753   7.3071673  33.7838553  19.0282753   7.0731673
  33.4318553  20.3192753   7.3711673  33.9738553  19.7592753   7.2821673
  43.1728553  18.6512753   4.2841673  43.8428553  19.1952753   4.4111673
  42.6698553  19.0752753   3.7111673  43.1978553  18.7942753   4.2181673
  34.5408553  33.5282753  11.8451673  35.1358553  33.9592753  12.3171673
  34.1768553  34.1522753  11.3561673  34.5748553  33.6842753  11.8421673
  42.5318553  24.4592753   1.7771673  43.0828553  23.8522753   2.0771673
  42.1068553  24.7222753   2.4921673  42.5508553  24.4082753   1.9261673
  32.4678553  31.5172753   8.7741673  31.8938553  31.9332753   9.2831673
  33.2008553  31.9822753   8.8691673  32.4918553  31.6472753   8.8631673
  47.7758553  27.6632753  11.4901673  48.4098553  27.4932753  12.0641673
  48.1928553  28.0662753  10.8381673  47.9308553  27.6982753  11.4791673
  48.4008553  22.2272753  12.2281673  48.2048553  22.8712753  12.7831673
  47.6788553  21.7372753  12.2201673  48.2658553  22.2502753  12.3091673
  48.2998553  23.1682753   5.1991673  47.4668553  23.4182753   5.1271673
  48.2438553  22.3282753   5.4281673  48.1688553  23.0812753   5.2221673
  37.5598553  20.1562753  10.3931673  37.7938553  19.5802753   9.7801673
  36.7178553  19.9752753  10.5341673  37.4698553  20.0442753  10.3231673
  45.1868553  27.7742753  12.8451673  46.0578553  27.7382753  12.8091673
  44.9678553  28.1942753  12.1131673  45.2838553  27.8302753  12.7321673
  34.9408553  33.5992753   4.0261673  34.8618553  32.7892753   3.7101673
  34.4968553  34.0862753   3.4541673  34.8638553  33.5512753   3.8951673
  32.5128553  35.8432753   7.6071673  33.0058553  35.7872753   8.3251673
  32.7008553  35.1102753   7.1721673  32.6138553  35.7262753   7.6491673
  41.7598553   6.7971673  80.4501313  41.2358553   7.3931673  80.8131313
  42.1568553   6.4291673  81.1341313  41.7408553   6.8311673  80.6051313
  31.6288553  10.9371673  75.9061313  31.1878553  11.0551673  76.6491313
  31.3458553  10.1621673  75.6211313  31.5218553  10.8401673  75.9741313
  47.9038553  14.2381673  73.4211313  48.6048553  13.7191673  73.4171313
  47.3168553  13.7931673  72.9521313  47.9208553  14.0951673  73.3511313
  31.3718553   4.7291673  72.4131313  30.5938553   4.8911673  72.0531313
  31.4108553   3.8581673  72.4351313  31.2628553   4.6241673  72.3631313
  34.5108553   9.9921673  71.0851313  34.1188553   9.6211673  70.3991313
  34.4308553   9.3941673  71.7141313  34.4408553   9.8491673  71.0761313
  44.4308553   7.8641673  77.1261313  44.5108553   7.8681673  76.2571313
  43.8468553   7.2321673  77.2751313  44.3558553   7.7711673  77.0201313
  34.1378553  11.6331673  74.9851313  34.7458553  11.4631673  75.5881313
  33.3868553  11.4931673  75.4061313  34.1168553  11.5871673  75.1361313
  33.0288553  14.7241673  71.0621313  33.4958553  14.8081673  70.3301313
  33.4838553  14.1461673  71.5311313  33.1648553  14.6511673  71.0231313
  33.0148553   8.1931673  76.3631313  32.5528553   7.8011673  75.7361313
  33.7148553   7.6801673  76.4551313  33.0498553   8.0601673  76.2841313
  35.0158553   6.2931673  76.3861313  35.8328553   6.1061673  76.6291313
  34.5388553   5.6791673  76.7821313  35.0658553   6.1751673  76.4811313
  39.2198553  12.2741673  78.9961313  39.5678553  11.4751673  79.0261313
  39.8848553  12.7781673  78.7411313  39.3698553  12.2301673  78.9631313
  39.2768553  11.7231673  75.2071313  39.6078553  11.0791673  75.6931313
  39.5168553  11.5121673  74.3961313  39.3608553  11.5971673  75.1591313
  43.2648553   3.4551673  70.1741313  42.8148553   4.1361673  70.4811313
  43.3788553   2.9511673  70.8771313  43.2158553   3.4811673  70.3231313
  31.4708553   5.9541673  79.3761313  31.2148553   6.7851673  79.3011313
  30.8068553   5.5711673  79.7931313  31.3348553   6.0201673  79.4271313
  31.3808553  15.6641673  77.2761313  30.7888553  16.2221673  76.9631313
  31.8068553  15.3951673  76.5641313  31.3568553  15.7061673  77.1251313
  37.2208553  13.5081673  74.7561313  36.6418553  13.2331673  75.3481313
  37.8448553  12.8991673  74.7811313  37.2278553  13.3781673  74.8471313
  43.3638553  15.7961673  72.2781313  44.0908553  16.2681673  72.3801313
  43.5928553  15.0021673  72.5581313  43.5058553  15.7491673  72.3351313
  41.5318553  16.1881673  74.2681313  41.7458553  16.7151673  74.9301313
  42.2988553  16.0141673  73.8891313  41.6768553  16.2401673  74.3101313
  32.9258553  14.3341673  75.2071313  33.5818553  13.7591673  75.2221313
  33.3148553  15.0831673  74.9861313  33.0808553  14.3591673  75.1771313
  48.6588553   3.4281673  76.4691313  48.3128553   4.1061673  76.8951313
  48.0228553   2.8301673  76.4851313  48.5138553   3.4401673  76.5341313
  33.7438553  12.8211673  78.7071313  34.1668553  12.4651673  78.0331313
  34.0678553  12.3991673  79.3991313  33.8538553  12.7061673  78.7101313
  36.9748553  15.6731673  78.0031313  37.8188553  15.7771673  77.8081313
  36.6778553  16.4911673  78.0711313  37.0558553  15.8091673  77.9841313
  40.7818553   5.0701673  76.0901313  41.0688553   4.8381673  75.3001313
  41.5138553   5.1491673  76.5591313  40.9318553   5.0471673  76.0431313
  41.5038553   5.4091673  71.2111313  41.7848553   6.1971673  71.4601313
  40.7278553   5.5741673  70.8481313  41.4308553   5.5501673  71.1941313
  45.5448553  17.3831673  72.6781313  46.2098553  17.2351673  72.1331313
  45.9048553  17.3001673  73.4681313  45.6968553  17.3491673  72.7141313
  40.3628553  13.5801673  71.0271313  40.1818553  14.1251673  71.6841313
  41.1288553  13.8701673  70.7261313  40.4488553  13.7041673  71.0801313
  31.8238553   2.6441673  74.6501313  31.7098553   1.7801673  74.6811313
  31.3488553   2.9381673  75.3201313  31.7368553   2.5601673  74.7531313
  41.1278553   3.8521673  73.3951313  40.6198553   3.1901673  73.1411313
  41.1798553   4.3561673  72.6851313  41.0608553   3.8291673  73.2531313
  47.9538553  17.1501673  76.6761313  47.4988553  17.8671673  76.8771313
  47.3398553  16.5791673  76.4341313  47.7958553  17.1721673  76.6701313
  39.7258553   3.1601673  77.8081313  39.7998553   3.7281673  77.1501313
  39.8468553   3.6521673  78.5181313  39.7538553   3.3171673  77.8161313
  44.9508553  12.9951673  76.2201313  45.6518553  12.5131673  76.4091313
  44.2908553  12.4261673  76.2651313  44.9568553  12.8401673  76.2541313
  37.2898553   9.4161673  80.1811313  37.4618553   9.2061673  81.0101313
  36.6348553   8.8821673  79.9651313  37.2188553   9.3061673  80.2721313
  34.7818553   2.7931673  77.8101313  35.0538553   2.3631673  77.1021313
  34.6058553   2.1571673  78.3811313  34.7958553   2.6361673  77.7901313
  47.4698553  10.4881673  72.0281313  47.5888553  10.2011673  72.8431313
  48.2768553  10.5091673  71.6981313  47.6058553  10.4491673  72.1001313
  34.6058553  10.2201673  77.3591313  35.4568553  10.1401673  77.1861313
  34.2488553   9.5381673  76.9471313  34.6788553  10.1071673  77.2721313
  33.3728553  16.9451673  78.5961313  32.6998553  16.4471673  78.3511313
  33.7758553  17.1301673  77.8451313  33.3328553  16.8991673  78.4491313
  32.9228553   3.8951673  80.8921313  33.7658553   4.1151673  80.8491313
  32.5338553   4.4681673  80.3611313  32.9898553   4.0121673  80.8071313
  45.3648553   7.0251673  71.6131313  45.1448553   7.7561673  71.1911313
  44.9168553   7.0761673  72.3601313  45.2658553   7.1401673  71.6611313
  36.9738553  10.2271673  75.5941313  37.6868553  10.7221673  75.6841313
  37.1958553   9.6601673  74.9681313  37.1118553  10.2161673  75.5151313
  31.1298553  11.8701673  78.9141313  30.4628553  12.3581673  79.1901313
  31.8098553  12.4151673  78.9431313  31.1318553  12.0221673  78.9591313
  31.1958553   8.5541673  74.0171313  31.0108553   7.7151673  74.1691313
  31.8548553   8.5181673  73.4471313  31.2658553   8.4251673  73.9551313
  41.4968553  13.9301673  77.9211313  40.9738553  14.5641673  77.6281313
  41.8068553  13.5661673  77.1921313  41.4648553  13.9701673  77.7701313
  31.3678553  12.7181673  73.5921313  31.9198553  13.2871673  73.9561313
  31.1358553  12.2031673  74.2571313  31.4148553  12.7261673  73.7441313
  35.5718553  11.7181673  80.6811313  36.0388553  12.0071673  81.3591313
  36.1438553  11.2401673  80.2271313  35.7258553  11.6901673  80.7141313
  44.0078553   3.7321673  78.4181313  44.3518553   3.8841673  79.2051313
  43.5548553   2.9941673  78.5311313  43.9918553   3.6451673  78.5511313
  31.1978553  11.1671673  71.2201313  31.9538553  10.7351673  71.2781313
  31.2128553  11.6991673  71.9111313  31.3118553  11.1821673  71.3311313
  32.1378553   9.3881673  79.2251313  32.5688553   9.2591673  78.4781313
  31.9328553  10.2361673  79.1991313  32.1708553   9.4941673  79.1111313
  38.4838553   2.9521673  72.8751313  38.4818553   2.8351673  72.0101313
  38.3028553   3.8001673  72.9671313  38.4568553   3.0601673  72.7611313
  36.2218553  12.9041673  77.5071313  36.3478553  13.7471673  77.6941313
  36.8898553  12.5051673  77.9031313  36.3398553  12.9701673  77.5931313
  34.8368553   5.7841673  72.5091313  34.7088553   5.3361673  73.2471313
  34.2548553   5.4421673  71.9571313  34.7318553   5.6671673  72.5371313
  35.0038553   7.6141673  79.1081313  34.2228553   7.5551673  78.7251313
  35.0758553   6.8621673  79.5451313  34.8988553   7.4951673  79.1161313
  45.3288553   5.0641673  80.9721313  44.6668553   5.3921673  81.4351313
  45.5158553   5.6981673  80.4031313  45.2588553   5.2061673  80.9561313
  43.5218553   3.0331673  74.4831313  44.0118553   3.7501673  74.4061313
  42.7318553   3.2941673  74.2201313  43.4778553   3.1771673  74.4331313
  40.1038553   4.5031673  80.2081313  40.5838553   5.2021673  80.4161313
  40.4768553   3.8561673  80.6591313  40.2298553   4.5111673  80.3051313
  42.2928553   7.6721673  72.4821313  42.2848553   8.3941673  71.9921313
  41.6538553   7.8071673  73.0591313  42.1978553   7.7991673  72.4951313
  47.2648553  11.5421673  76.4631313  47.6208553  11.1921673  77.1781313
  47.2568553  10.8811673  75.8931313  47.3168553  11.3921673  76.4841313
  43.3098553  14.6081673  80.3071313  42.7068553  14.3121673  79.7501313
  43.8548553  15.0601673  79.7981313  43.3008553  14.6311673  80.1491313
  43.3228553  11.4591673  79.7071313  42.5258553  11.6831673  79.9811313
  43.5808553  10.8651673  80.2921313  43.2428553  11.4041673  79.8341313
  37.2148553  16.2711673  74.1551313  37.0678553  15.4951673  74.5261313
  37.9038553  16.1241673  73.6401313  37.2948553  16.1341673  74.1341313
  39.5068553  15.7871673  72.5571313  40.1288553  15.9501673  73.1471313
  39.5428553  16.4781673  72.0251313  39.6038553  15.9131673  72.5661313
  34.0078553   8.3211673  73.3861313  34.3318553   7.5421673  73.1641313
  34.6538553   8.6891673  73.8411313  34.1508553   8.2601673  73.4201313
  40.6978553   7.6631673  74.8111313  40.7568553   8.3131673  75.3901313
  40.5088553   6.9671673  75.3021313  40.6788553   7.6561673  74.9691313
  45.9238553  11.9921673  80.6801313  45.4448553  12.2901673  80.0141313
  45.5678553  11.2161673  80.8581313  45.8008553  11.9211673  80.6081313
  35.1938553   2.1801673  71.3231313  34.6828553   2.2331673  70.6171313
  35.9778553   2.4201673  71.0271313  35.2338553   2.2231673  71.1751313
  39.9208553   9.7101673  79.2421313  39.0738553   9.5161673  79.3231313
  40.2448553   9.5451673  80.0351313  39.8428553   9.6571673  79.3711313
  36.6728553  16.4401673  70.1281313  37.1118553  15.7431673  70.4161313
  36.8798553  17.0641673  70.7011313  36.7688553  16.4291673  70.2551313
  33.7688553   9.4031673  81.5581313  34.4908553   9.8911673  81.5211313
  33.4988553   9.3731673  80.7291313  33.8358553   9.4711673  81.4301313
  36.9988553   4.5741673  78.2931313  37.8448553   4.3841673  78.3911313
  36.6288553   3.7971673  78.1551313  37.0688553   4.4311673  78.2871313
  49.6158553  16.1581673  72.6201313  50.3098553  15.6911673  72.3721313
  49.0768553  15.5601673  72.9571313  49.6388553  16.0001673  72.6331313
  31.8198553   5.9121673  74.9481313  32.3088553   5.6201673  75.6091313
  31.9488553   5.3191673  74.3211313  31.9108553   5.7811673  74.9531313
  36.3448553   7.3461673  70.4341313  35.7348553   6.9411673  70.9081313
  35.9588553   7.4641673  69.6611313  36.1978553   7.3031673  70.3901313
  48.1108553   9.0051673  79.2361313  47.8248553   9.4061673  79.9561313
  48.9708553   8.9431673  79.3631313  48.1958553   9.0551673  79.3611313
  37.7998553   5.8071673  73.1441313  38.0718553   6.6331673  73.2111313
  36.9368553   5.8821673  73.0481313  37.7128553   5.9401673  73.1391313
  31.2798553   1.7771673  79.6801313  31.3238553   2.1211673  78.8791313
  32.0348553   2.0141673  80.0471313  31.3978553   1.8631673  79.6161313
  49.2418553  14.6381673  79.7651313  49.5318553  14.8951673  78.9841313
  49.9368553  14.7341673  80.2841313  49.3878553  14.6901673  79.7261313
  45.8468553  13.2411673  71.7471313  46.1808553  12.4351673  71.7821313
  45.0918553  13.1691673  72.1771313  45.7848553  13.1111673  71.8161313
  46.3288553   5.0751673  77.4061313  45.5838553   4.7521673  77.7241313
  46.3308553   5.9011673  77.6861313  46.2188553   5.1491673  77.4941313
  43.2208553  11.1161673  71.1501313  43.9048553  10.6021673  70.9811313
  42.8038553  11.1621673  70.3851313  43.2598553  11.0471673  71.0121313
  39.6828553  16.0821673  77.1731313  40.2288553  16.7611673  77.2271313
  39.3328553  16.1641673  76.3781313  39.7118553  16.1951673  77.0631313
  37.8658553  14.3101673  80.5621313  37.2418553  14.8921673  80.3801313
  38.1138553  14.0241673  79.7761313  37.8098553  14.3541673  80.4191313
  47.9468553   5.6401673  71.3941313  48.3248553   6.3171673  70.9941313
  47.1048553   5.8641673  71.4251313  47.8778553   5.7731673  71.3391313
  39.4598553   9.0861673  70.4771313  38.6548553   8.9091673  70.1921313
  39.4268553   9.9371673  70.6691313  39.3358553   9.1851673  70.4641313
  35.3898553   5.1531673  80.6271313  35.8298553   5.0501673  79.8811313
  35.9348553   4.8401673  81.2321313  35.5348553   5.0921673  80.6061313
  45.6418553   5.2391673  74.7691313  45.8488553   5.0381673  75.5931313
  46.3978553   5.5071673  74.4271313  45.7838553   5.2491673  74.8401313
  47.1068553   9.2661673  74.6231313  47.5828553   8.5371673  74.5751313
  46.2858553   8.9801673  74.5471313  47.0558553   9.1161673  74.6041313
  34.5658553   3.2801673  73.9341313  34.6918553   2.9511673  73.1361313
  33.7538553   3.0311673  74.1331313  34.4648553   3.1951673  73.8461313
  43.3228553  10.4331673  76.9781313  43.3988553  10.7741673  77.7771313
  43.4918553   9.5861673  77.0991313  43.3588553  10.3581673  77.1141313
  40.8448553   9.7071673  76.5431313  40.5468553   9.3921673  77.3001313
  41.5398553  10.1801673  76.7781313  40.9038553   9.7301673  76.6901313
  44.7738553  16.6631673  79.0731313  44.3228553  17.3061673  79.4521313
  45.4818553  16.5841673  79.5781313  44.8118553  16.7461673  79.2041313
  47.8768553   6.3791673  74.0651313  47.9798553   6.3211673  73.2011313
  48.6178553   6.0471673  74.3831313  48.0018553   6.3221673  73.9841313
  41.7968553  13.3441673  75.1721313  41.5918553  14.1771673  75.0131313
  41.0218553  12.9621673  75.2941313  41.6518553  13.4111673  75.1671313
  33.1708553   4.9011673  70.4671313  32.4988553   4.9151673  71.0231313
  33.2658553   4.0531673  70.2831313  33.0858553   4.7781673  70.5221313
  37.1588553  13.6061673  71.5811313  37.5998553  13.6861673  72.3291313
  36.3538553  13.3901673  71.8391313  37.1048553  13.5861673  71.7301313
  45.4498553   2.0311673  80.8571313  46.3048553   2.1301673  81.0021313
  45.0808553   2.5841673  81.4221313  45.5218553   2.1281673  80.9621313
  45.7538553   7.3111673  79.3481313  46.4198553   7.8521673  79.5081313
  45.4088553   7.6221673  78.6091313  45.8008553   7.4371673  79.2631313
  46.0668553  15.3771673  75.1551313  45.8928553  14.7231673  75.7051313
  46.7798553  15.1061673  74.7321313  46.1468553  15.2401673  75.1741313
  34.4878553  12.6761673  72.1821313  34.2438553  12.3691673  72.9621313
  34.4548553  11.9731673  71.6661313  34.4468553  12.5271673  72.2211313
  37.3068553  10.9211673  70.9251313  36.4888553  10.6531673  71.0651313
  37.2788553  11.7731673  71.1101313  37.1818553  11.0081673  70.9731313
  46.6588553  14.7291673  81.1011313  47.1858553  14.6461673  80.4101313
  46.2678553  13.9511673  81.1551313  46.6788553  14.6021673  81.0071313
  42.5318553   5.9811673  77.8021313  43.0828553   5.3741673  78.1021313
  42.1068553   6.2441673  78.5171313  42.5508553   5.9301673  77.9511313
  32.7798553   4.6311673  77.2881313  32.4118553   4.9331673  78.0191313
  33.3138553   4.0021673  77.5721313  32.8038553   4.5831673  77.4381313
  44.5018553   7.8121673  74.3641313  44.5698553   6.9621673  74.5451313
  43.6788553   7.8981673  74.0861313  44.3898553   7.6991673  74.3501313
  34.2538553  16.3061673  73.5741313  34.1088553  16.4621673  72.7281313
  35.1198553  16.3851673  73.6521313  34.3608553  16.3411673  73.4611313
  38.4208553   8.7031673  73.3021313  38.5208553   8.8421673  72.4471313
  39.2388553   8.6431673  73.5981313  38.5558553   8.7141673  73.2191313
  47.5808553  16.7671673  70.7821313  48.2178553  16.6331673  71.3631313
  47.2398553  15.9731673  70.6651313  47.6248553  16.6301673  70.8501313
  43.6558553  13.0321673  73.1041313  43.4048553  12.9041673  73.9301313
  43.3388553  12.3371673  72.6831313  43.5718553  12.9111673  73.1641313
  48.2998553   4.6901673  81.2241313  47.4668553   4.9401673  81.1521313
  48.2438553   3.8501673  81.4531313  48.1688553   4.6031673  81.2471313
  34.9408553  15.1211673  80.0511313  34.8618553  14.3111673  79.7351313
  34.4968553  15.6081673  79.4791313  34.8638553  15.0731673  79.9201313
  40.5418553  11.2401673  72.5341313  41.2588553  10.8931673  72.1781313
  40.5078553  12.0401673  72.1861313  40.6428553  11.3071673  72.4301313
  41.7598553   6.7971673  61.4438903  41.2358553   7.3931673  61.8068903
  42.1568553   6.4291673  62.1278903  41.7408553   6.8311673  61.5988903
  31.6288553  10.9371673  56.8998903  31.1878553  11.0551673  57.6428903
  31.3458553  10.1621673  56.6148903  31.5218553  10.8401673  56.9678903
  47.9038553  14.2381673  54.4148903  48.6048553  13.7191673  54.4108903
  47.3168553  13.7931673  53.9458903  47.9208553  14.0951673  54.3448903
  31.3718553   4.7291673  53.4068903  30.5938553   4.8911673  53.0468903
  31.4108553   3.8581673  53.4288903  31.2628553   4.6241673  53.3568903
  34.5108553   9.9921673  52.0788903  34.1188553   9.6211673  51.3928903
  34.4308553   9.3941673  52.7078903  34.4408553   9.8491673  52.0698903
  44.4308553   7.8641673  58.1198903  44.5108553   7.8681673  57.2508903
  43.8468553   7.2321673  58.2688903  44.3558553   7.7711673  58.0138903
  34.1378553  11.6331673  55.9788903  34.7458553  11.4631673  56.5818903
  33.3868553  11.4931673  56.3998903  34.1168553  11.5871673  56.1298903
  33.0288553  14.7241673  52.0558903  33.4958553  14.8081673  51.3238903
  33.4838553  14.1461673  52.5248903  33.1648553  14.6511673  52.0168903
  31.5688553  13.6721673  63.1548903  31.6978553  13.3921673  63.9708903
  30.9588553  13.1311673  62.8458903  31.4978553  13.5511673  63.2298903
  38.1428553  11.1971673  68.2218903  37.9068553  11.1941673  69.0618903
  37.3948553  11.0491673  67.7978903  37.9968553  11.1741673  68.2828903
  33.0148553   8.1931673  57.3568903  32.5528553   7.8011673  56.7298903
  33.7148553   7.6801673  57.4488903  33.0498553   8.0601673  57.2778903
  37.5228553   3.8031673  62.7038903  38.2008553   3.8211673  62.1548903
  37.4778553   2.9671673  62.9488903  37.6158553   3.6821673  62.6588903
  38.1248553  14.3891673  65.4848903  38.2628553  15.1491673  65.0778903
  38.9158553  14.0241673  65.5118903  38.2618553  14.4481673  65.4288903
  35.0158553   6.2931673  57.3798903  35.8328553   6.1061673  57.6228903
  34.5388553   5.6791673  57.7758903  35.0658553   6.1751673  57.4748903
  39.2198553  12.2741673  59.9898903  39.5678553  11.4751673  60.0198903
  39.8848553  12.7781673  59.7348903  39.3698553  12.2301673  59.9568903
  39.2768553  11.7231673  56.2008903  39.6078553  11.0791673  56.6868903
  39.5168553  11.5121673  55.3898903  39.3608553  11.5971673  56.1528903
  41.2448553   5.8541673  67.5398903  40.3968553   5.7551673  67.3618903
  41.2738553   6.5991673  67.9938903  41.1238553   5.9501673  67.5808903
  43.2648553   3.4551673  51.1678903  42.8148553   4.1361673  51.4748903
  43.3788553   2.9511673  51.8708903  43.2158553   3.4811673  51.3168903
  31.4708553   5.9541673  60.3698903  31.2148553   6.7851673  60.2948903
  30.8068553   5.5711673  60.7868903  31.3348553   6.0201673  60.4208903
  31.3808553  15.6641673  58.2698903  30.7888553  16.2221673  57.9568903
  31.8068553  15.3951673  57.5578903  31.3568553  15.7061673  58.1188903
  37.2208553  13.5081673  55.7498903  36.6418553  13.2331673  56.3418903
  37.8448553  12.8991673  55.7748903  37.2278553  13.3781673  55.8408903
  43.3638553  15.7961673  53.2718903  44.0908553  16.2681673  53.3738903
  43.5928553  15.0021673  53.5518903  43.5058553  15.7491673  53.3288903
  41.5318553  16.1881673  55.2618903  41.7458553  16.7151673  55.9238903
  42.2988553  16.0141673  54.8828903  41.6768553  16.2401673  55.3038903
  37.8058553   2.9041673  70.1588903  37.9228553   2.4501673  69.4228903
  38.0938553   3.7021673  69.9558903  37.8658553   2.9551673  70.0198903
  32.9258553  14.3341673  56.2008903  33.5818553  13.7591673  56.2158903
  33.3148553  15.0831673  55.9798903  33.0808553  14.3591673  56.1708903
  48.6588553   3.4281673  57.4628903  48.3128553   4.1061673  57.8888903
  48.0228553   2.8301673  57.4788903  48.5138553   3.4401673  57.5278903
  43.9708553  16.1981673  63.5668903  44.7148553  16.6541673  63.5568903
  43.8498553  15.9841673  62.7298903  44.0628553  16.2341673  63.4418903
  33.5388553   2.5011673  69.1428903  32.7608553   2.1111673  69.0708903
  34.0298553   2.0891673  68.5518903  33.4958553   2.3821673  69.0448903
  33.7438553  12.8211673  59.7008903  34.1668553  12.4651673  59.0268903
  34.0678553  12.3991673  60.3928903  33.8538553  12.7061673  59.7038903
  36.9748553  15.6731673  58.9968903  37.8188553  15.7771673  58.8018903
  36.6778553  16.4911673  59.0648903  37.0558553  15.8091673  58.9778903
  40.7818553   5.0701673  57.0838903  41.0688553   4.8381673  56.2938903
  41.5138553   5.1491673  57.5528903  40.9318553   5.0471673  57.0368903
  41.5038553   5.4091673  52.2048903  41.7848553   6.1971673  52.4538903
  40.7278553   5.5741673  51.8418903  41.4308553   5.5501673  52.1878903
  45.5448553  17.3831673  53.6718903  46.2098553  17.2351673  53.1268903
  45.9048553  17.3001673  54.4618903  45.6968553  17.3491673  53.7078903
  35.9728553  16.8921673  64.7368903  36.2648553  16.8251673  65.5568903
  35.3468553  16.2871673  64.6918903  35.9238553  16.7931673  64.8518903
  30.8868553   3.0491673  66.7288903  30.8828553   3.6361673  67.3748903
  31.4808553   3.3611673  66.1718903  30.9738553   3.1821673  66.7418903
  43.2248553  13.3831673  67.2708903  43.1908553  13.7651673  68.0548903
  44.0788553  13.3411673  67.0998903  43.3458553  13.4331673  67.3618903
  40.3628553  13.5801673  52.0208903  40.1818553  14.1251673  52.6778903
  41.1288553  13.8701673  51.7198903  40.4488553  13.7041673  52.0738903
  31.8238553   2.6441673  55.6438903  31.7098553   1.7801673  55.6748903
  31.3488553   2.9381673  56.3138903  31.7368553   2.5601673  55.7468903
  33.9658553  15.0541673  63.8588903  33.2678553  14.5461673  63.9848903
  34.2258553  14.8491673  63.0508903  33.9008553  14.9491673  63.7578903
  41.1278553   3.8521673  54.3888903  40.6198553   3.1901673  54.1348903
  41.1798553   4.3561673  53.6788903  41.0608553   3.8291673  54.2468903
  41.6768553  16.5471673  64.7688903  42.4448553  16.4671673  64.3628903
  41.0938553  16.4261673  64.1308903  41.7038553  16.5171673  64.6148903
  47.9538553  17.1501673  57.6698903  47.4988553  17.8671673  57.8708903
  47.3398553  16.5791673  57.4278903  47.7958553  17.1721673  57.6638903
  39.7258553   3.1601673  58.8018903  39.7998553   3.7281673  58.1438903
  39.8468553   3.6521673  59.5118903  39.7538553   3.3171673  58.8098903
  44.9508553  12.9951673  57.2138903  45.6518553  12.5131673  57.4028903
  44.2908553  12.4261673  57.2588903  44.9568553  12.8401673  57.2478903
  35.3268553  13.9051673  66.4258903  36.1678553  13.9681673  66.2038903
  35.2898553  14.3021673  67.2018903  35.4458553  13.9731673  66.5078903
  37.2898553   9.4161673  61.1748903  37.4618553   9.2061673  62.0038903
  36.6348553   8.8821673  60.9588903  37.2188553   9.3061673  61.2658903
  43.5178553   3.3301673  64.6898903  43.4228553   3.6491673  65.4958903
  42.9248553   2.6911673  64.6518903  43.4158553   3.2821673  64.8038903
  38.0398553   9.3541673  63.7648903  38.0928553  10.2011673  63.9668903
  37.7548553   8.9841673  64.5018903  38.0058553   9.4241673  63.9028903
  44.2168553  10.0491673  62.8948903  43.7028553   9.6371673  63.4658903
  44.0908553  10.8931673  63.0758903  44.1228553  10.1131673  63.0058903
  30.8608553  13.7251673  69.9758903  31.6168553  14.0741673  70.2338903
  31.0378553  12.8721673  69.9188903  30.9988553  13.6501673  70.0058903
  47.2378553   3.5101673  65.8338903  48.0098553   3.2851673  66.1708903
  46.7628553   3.7271673  66.5338903  47.2818553   3.5091673  65.9868903
  34.7818553   2.7931673  58.8038903  35.0538553   2.3631673  58.0958903
  34.6058553   2.1571673  59.3748903  34.7958553   2.6361673  58.7838903
  47.4698553  10.4881673  53.0218903  47.5888553  10.2011673  53.8368903
  48.2768553  10.5091673  52.6918903  47.6058553  10.4491673  53.0938903
  34.6058553  10.2201673  58.3528903  35.4568553  10.1401673  58.1798903
  34.2488553   9.5381673  57.9408903  34.6788553  10.1071673  58.2658903
  33.3728553  16.9451673  59.5898903  32.6998553  16.4471673  59.3448903
  33.7758553  17.1301673  58.8388903  33.3328553  16.8991673  59.4428903
  32.9228553   3.8951673  61.8858903  33.7658553   4.1151673  61.8428903
  32.5338553   4.4681673  61.3548903  32.9898553   4.0121673  61.8008903
  49.7038553  14.9971673  67.2758903  49.0218553  15.3071673  66.8288903
  49.3348553  14.5391673  67.9208903  49.5478553  14.9751673  67.3048903
  45.3648553   7.0251673  52.6068903  45.1448553   7.7561673  52.1848903
  44.9168553   7.0761673  53.3538903  45.2658553   7.1401673  52.6548903
  36.9738553  10.2271673  56.5878903  37.6868553  10.7221673  56.6778903
  37.1958553   9.6601673  55.9618903  37.1118553  10.2161673  56.5088903
  31.1298553  11.8701673  59.9078903  30.4628553  12.3581673  60.1838903
  31.8098553  12.4151673  59.9368903  31.1318553  12.0221673  59.9528903
  38.7768553   5.5801673  70.0038903  38.2928553   6.1571673  70.4458903
  38.7488553   5.8751673  69.1828903  38.7008553   5.7091673  69.9478903
  49.8748553   6.2641673  64.6158903  50.0898553   5.4641673  64.3398903
  49.0248553   6.3241673  64.4268903  49.7808553   6.1551673  64.5468903
  31.1958553   8.5541673  55.0108903  31.0108553   7.7151673  55.1628903
  31.8548553   8.5181673  54.4408903  31.2658553   8.4251673  54.9488903
  41.4968553  13.9301673  58.9148903  40.9738553  14.5641673  58.6218903
  41.8068553  13.5661673  58.1858903  41.4648553  13.9701673  58.7638903
  31.3678553  12.7181673  54.5858903  31.9198553  13.2871673  54.9498903
  31.1358553  12.2031673  55.2508903  31.4148553  12.7261673  54.7378903
  35.5718553  11.7181673  61.6748903  36.0388553  12.0071673  62.3528903
  36.1438553  11.2401673  61.2208903  35.7258553  11.6901673  61.7078903
  44.0078553   3.7321673  59.4118903  44.3518553   3.8841673  60.1988903
  43.5548553   2.9941673  59.5248903  43.9918553   3.6451673  59.5448903
  31.1978553  11.1671673  52.2138903  31.9538553  10.7351673  52.2718903
  31.2128553  11.6991673  52.9048903  31.3118553  11.1821673  52.3248903
  32.1378553   9.3881673  60.2188903  32.5688553   9.2591673  59.4718903
  31.9328553  10.2361673  60.1928903  32.1708553   9.4941673  60.1048903
  38.4838553   2.9521673  53.8688903  38.4818553   2.8351673  53.0038903
  38.3028553   3.8001673  53.9608903  38.4568553   3.0601673  53.7548903
  47.5378553  15.3791673  65.3658903  46.8668553  15.8931673  65.5838903
  47.6008553  15.4791673  64.5018903  47.4478553  15.4701673  65.2708903
  36.2218553  12.9041673  58.5008903  36.3478553  13.7471673  58.6878903
  36.8898553  12.5051673  58.8968903  36.3398553  12.9701673  58.5868903
  34.3518553   6.3871673  68.3628903  33.8158553   5.8811673  68.8308903
  34.3718553   5.9971673  67.5828903  34.2748553   6.2541673  68.3168903
  34.8368553   5.7841673  53.5028903  34.7088553   5.3361673  54.2408903
  34.2548553   5.4421673  52.9508903  34.7318553   5.6671673  53.5308903
  35.0038553   7.6141673  60.1018903  34.2228553   7.5551673  59.7188903
  35.0758553   6.8621673  60.5388903  34.8988553   7.4951673  60.1098903
  35.4338553   7.3511673  63.5698903  35.4588553   6.6761673  63.0188903
  34.7878553   7.8471673  63.2578903  35.3428553   7.3241673  63.4428903
  45.3288553   5.0641673  61.9658903  44.6668553   5.3921673  62.4288903
  45.5158553   5.6981673  61.3968903  45.2588553   5.2061673  61.9498903
  39.5338553  16.1281673  62.9618903  39.2568553  15.4871673  62.4388903
  39.3258553  16.8541673  62.5238903  39.4628553  16.1411673  62.8198903
  43.5218553   3.0331673  55.4768903  44.0118553   3.7501673  55.3998903
  42.7318553   3.2941673  55.2138903  43.4778553   3.1771673  55.4268903
  33.2328553   8.7061673  69.1288903  33.1958553   9.2071673  68.4148903
  33.5638553   7.9541673  68.8338903  33.2758553   8.6681673  68.9798903
  44.8358553  10.9111673  67.3868903  45.3198553  11.6291673  67.4848903
  45.2298553  10.4841673  66.7358903  44.9658553  10.9541673  67.3048903
  39.1318553  13.7561673  68.5638903  39.4858553  13.5781673  69.3408903
  38.6958553  13.0271673  68.3648903  39.1198553  13.6221673  68.6498903
  40.1038553   4.5031673  61.2018903  40.5838553   5.2021673  61.4098903
  40.4768553   3.8561673  61.6528903  40.2298553   4.5111673  61.2988903
  42.2928553   7.6721673  53.4758903  42.2848553   8.3941673  52.9858903
  41.6538553   7.8071673  54.0528903  42.1978553   7.7991673  53.4888903
  47.2648553  11.5421673  57.4568903  47.6208553  11.1921673  58.1718903
  47.2568553  10.8811673  56.8868903  47.3168553  11.3921673  57.4778903
  43.3098553  14.6081673  61.3008903  42.7068553  14.3121673  60.7438903
  43.8548553  15.0601673  60.7918903  43.3008553  14.6311673  61.1428903
  43.3228553  11.4591673  60.7008903  42.5258553  11.6831673  60.9748903
  43.5808553  10.8651673  61.2858903  43.2428553  11.4041673  60.8278903
  37.2148553  16.2711673  55.1488903  37.0678553  15.4951673  55.5198903
  37.9038553  16.1241673  54.6338903  37.2948553  16.1341673  55.1278903
  39.5068553  15.7871673  53.5508903  40.1288553  15.9501673  54.1408903
  39.5428553  16.4781673  53.0188903  39.6038553  15.9131673  53.5598903
  46.5828553   9.4571673  65.5468903  46.6378553   9.5821673  64.6848903
  47.3358553   9.7771673  65.8488903  46.7018553   9.5221673  65.4638903
  42.7738553  14.8061673  69.8238903  42.9378553  15.0891673  70.6328903
  43.0368553  15.4671673  69.3188903  42.8368553  14.9461673  69.8688903
  34.0078553   8.3211673  54.3798903  34.3318553   7.5421673  54.1578903
  34.6538553   8.6891673  54.8348903  34.1508553   8.2601673  54.4138903
  42.3138553   9.2631673  65.1468903  42.1588553   9.8731673  65.7508903
  42.8478553   8.7051673  65.5528903  42.3698553   9.2711673  65.2958903
  40.6978553   7.6631673  55.8048903  40.7568553   8.3131673  56.3838903
  40.5088553   6.9671673  56.2958903  40.6788553   7.6561673  55.9628903
  45.9238553  11.9921673  61.6738903  45.4448553  12.2901673  61.0078903
  45.5678553  11.2161673  61.8518903  45.8008553  11.9211673  61.6018903
  35.1938553   2.1801673  52.3168903  34.6828553   2.2331673  51.6108903
  35.9778553   2.4201673  52.0208903  35.2338553   2.2231673  52.1688903
  39.9208553   9.7101673  60.2358903  39.0738553   9.5161673  60.3168903
  40.2448553   9.5451673  61.0288903  39.8428553   9.6571673  60.3648903
  36.6728553  16.4401673  51.1218903  37.1118553  15.7431673  51.4098903
  36.8798553  17.0641673  51.6948903  36.7688553  16.4291673  51.2488903
  33.7688553   9.4031673  62.5518903  34.4908553   9.8911673  62.5148903
  33.4988553   9.3731673  61.7228903  33.8358553   9.4711673  62.4238903
  36.9988553   4.5741673  59.2868903  37.8448553   4.3841673  59.3848903
  36.6288553   3.7971673  59.1488903  37.0688553   4.4311673  59.2808903
  49.6158553  16.1581673  53.6138903  50.3098553  15.6911673  53.3658903
  49.0768553  15.5601673  53.9508903  49.6388553  16.0001673  53.6268903
  31.8198553   5.9121673  55.9418903  32.3088553   5.6201673  56.6028903
  31.9488553   5.3191673  55.3148903  31.9108553   5.7811673  55.9468903
  46.8548553   8.9341673  62.7928903  46.8478553   8.1581673  63.1908903
  46.0138553   9.1681673  62.7858903  46.7298553   8.8541673  62.8508903
  36.3448553   7.3461673  51.4278903  35.7348553   6.9411673  51.9018903
  35.9588553   7.4641673  50.6548903  36.1978553   7.3031673  51.3838903
  33.1638553  10.4551673  66.8298903  32.7428553   9.9371673  66.2688903
  32.8118553  11.2411673  66.6868903  33.0498553  10.4951673  66.7258903
  48.1108553   9.0051673  60.2298903  47.8248553   9.4061673  60.9498903
  48.9708553   8.9431673  60.3568903  48.1958553   9.0551673  60.3548903
  37.7998553   5.8071673  54.1378903  38.0718553   6.6331673  54.2048903
  36.9368553   5.8821673  54.0418903  37.7128553   5.9401673  54.1328903
  45.7728553   2.9291673  68.7698903  45.2478553   3.3881673  69.2938903
  45.4118553   2.1341673  68.7638903  45.6418553   2.8791673  68.8458903
  31.2798553   1.7771673  60.6738903  31.3238553   2.1211673  59.8728903
  32.0348553   2.0141673  61.0408903  31.3978553   1.8631673  60.6098903
  49.2418553  14.6381673  60.7588903  49.5318553  14.8951673  59.9778903
  49.9368553  14.7341673  61.2778903  49.3878553  14.6901673  60.7198903
  44.2648553   6.4981673  68.8458903  44.3378553   6.6021673  69.7088903
  43.6308553   7.0561673  68.6248903  44.1818553   6.5961673  68.9408903
  46.5328553   6.8171673  67.2108903  46.8518553   7.6031673  67.4138903
  46.1628553   6.5471673  67.9538903  46.5258553   6.8931673  67.3508903
  45.8468553  13.2411673  52.7408903  46.1808553  12.4351673  52.7758903
  45.0918553  13.1691673  53.1708903  45.7848553  13.1111673  52.8098903
  46.3288553   5.0751673  58.3998903  45.5838553   4.7521673  58.7178903
  46.3308553   5.9011673  58.6798903  46.2188553   5.1491673  58.4878903
  49.2308553   7.3591673  69.9458903  49.1788553   7.0181673  69.1448903
  49.9678553   7.8261673  69.9238903  49.3318553   7.3781673  69.8238903
  48.7688553  11.0351673  66.1518903  49.3968553  10.4861673  65.8958903
  48.7078553  11.6001673  65.4898903  48.8528553  11.0381673  66.0158903
  43.2208553  11.1161673  52.1438903  43.9048553  10.6021673  51.9748903
  42.8038553  11.1621673  51.3788903  43.2598553  11.0471673  52.0058903
  37.9028553  12.2661673  63.4478903  37.6048553  12.8581673  64.0148903
  37.9578553  12.7081673  62.6988903  37.8668553  12.4191673  63.4208903
  35.8818553  11.2161673  66.8458903  35.0758553  10.9261673  67.0128903
  35.7928553  12.0841673  66.8518903  35.7498553  11.3011673  66.8708903
  40.4188553   8.6891673  62.9388903  40.8948553   9.0631673  63.5668903
  39.5958553   8.8231673  63.1978903  40.3678553   8.7641673  63.0698903
  37.1288553   4.2921673  65.6798903  37.2898553   3.5481673  66.1068903
  37.0838553   4.0431673  64.8448903  37.1458553   4.1451673  65.6198903
  39.6828553  16.0821673  58.1668903  40.2288553  16.7611673  58.2208903
  39.3328553  16.1641673  57.3718903  39.7118553  16.1951673  58.0568903
  37.8658553  14.3101673  61.5558903  37.2418553  14.8921673  61.3738903
  38.1138553  14.0241673  60.7698903  37.8098553  14.3541673  61.4128903
  42.1748553  10.9441673  68.5448903  42.9318553  11.2301673  68.2188903
  41.6278553  10.9961673  67.8668903  42.2058553  10.9941673  68.3958903
  46.0838553  13.4941673  67.0488903  46.4298553  13.7641673  67.8028903
  46.3778553  14.0761673  66.4688903  46.1788553  13.6201673  67.0748903
  47.9468553   5.6401673  52.3878903  48.3248553   6.3171673  51.9878903
  47.1048553   5.8641673  52.4188903  47.8778553   5.7731673  52.3328903
  39.4598553   9.0861673  51.4708903  38.6548553   8.9091673  51.1858903
  39.4268553   9.9371673  51.6628903  39.3358553   9.1851673  51.4578903
  35.3898553   5.1531673  61.6208903  35.8298553   5.0501673  60.8748903
  35.9348553   4.8401673  62.2258903  35.5348553   5.0921673  61.5998903
  43.4058553   4.2551673  67.2128903  42.7578553   4.7251673  67.5608903
  43.9708553   4.1661673  67.8718903  43.3938553   4.3111673  67.3618903
  43.0938553   5.7921673  63.5108903  43.3958553   6.2121673  64.2138903
  43.1298553   4.9521673  63.7428903  43.1438553   5.7301673  63.6488903
  40.5188553  15.9591673  67.4358903  40.9968553  15.3591673  67.0198903
  40.1678553  15.5161673  68.1008903  40.5378553  15.8051673  67.4728903
  45.6418553   5.2391673  55.7628903  45.8488553   5.0381673  56.5868903
  46.3978553   5.5071673  55.4208903  45.7838553   5.2491673  55.8338903
  47.1068553   9.2661673  55.6168903  47.5828553   8.5371673  55.5688903
  46.2858553   8.9801673  55.5408903  47.0558553   9.1161673  55.5978903
  40.5778553  11.1781673  66.4558903  39.7828553  11.1141673  66.8068903
  40.6488553  12.0251673  66.2608903  40.4708553  11.2931673  66.4788903
  36.4078553  17.3851673  61.7728903  36.4188553  17.4441673  62.6428903
  35.9828553  16.6381673  61.6228903  36.3468553  17.2831673  61.8788903
  34.5658553   3.2801673  54.9278903  34.6918553   2.9511673  54.1298903
  33.7538553   3.0311673  55.1268903  34.4648553   3.1951673  54.8398903
  43.3228553  10.4331673  57.9718903  43.3988553  10.7741673  58.7708903
  43.4918553   9.5861673  58.0928903  43.3588553  10.3581673  58.1078903
  40.8448553   9.7071673  57.5368903  40.5468553   9.3921673  58.2938903
  41.5398553  10.1801673  57.7718903  40.9038553   9.7301673  57.6838903
  41.0668553  13.8251673  65.5638903  41.7538553  13.7111673  66.0888903
  41.2008553  14.6161673  65.2198903  41.1878553  13.9251673  65.5908903
  49.2428553   6.4341673  67.3748903  48.3878553   6.3121673  67.5008903
  49.3958553   6.0391673  66.6118903  49.1388553   6.3571673  67.2808903
  43.7558553   7.0991673  65.9508903  43.5008553   6.3801673  66.3728903
  44.5768553   7.2151673  66.2208903  43.8398553   7.0101673  66.0528903
  33.1718553  16.8831673  67.2148903  32.5178553  16.3141673  67.3128903
  32.7968553  17.6561673  67.3658903  33.0198553  16.9131673  67.2518903
  41.6898553   8.2891673  69.1378903  42.0128553   8.9751673  68.7058903
  40.9858553   8.6121673  69.5398903  41.6328553   8.4381673  69.1328903
  44.7738553  16.6631673  60.0668903  44.3228553  17.3061673  60.4458903
  45.4818553  16.5841673  60.5718903  44.8118553  16.7461673  60.1978903
  41.4748553  11.7531673  62.9968903  40.7808553  12.1551673  63.3398903
  42.1518553  12.1861673  63.3358903  41.4718553  11.8761673  63.0978903
  46.8518553  14.3461673  69.5768903  47.6278553  13.9561673  69.6598903
  46.3828553  14.0101673  70.2318903  46.8968553  14.2391673  69.6858903
  34.5428553   5.2911673  65.3438903  34.9178553   5.9101673  64.8568903
  35.2168553   4.8171673  65.6288903  34.6978553   5.3131673  65.3138903
  32.3178553   3.7391673  64.6188903  32.3948553   3.5701673  63.7658903
  33.0638553   4.1451673  64.8158903  32.4388553   3.7741673  64.5218903
  47.8768553   6.3791673  55.0588903  47.9798553   6.3211673  54.1948903
  48.6178553   6.0471673  55.3768903  48.0018553   6.3221673  54.9778903
  41.7968553  13.3441673  56.1658903  41.5918553  14.1771673  56.0068903
  41.0218553  12.9621673  56.2878903  41.6518553  13.4111673  56.1608903
  46.9788553   6.5251673  64.4148903  46.9768553   5.6621673  64.5388903
  47.0458553   6.8491673  65.2218903  46.9888553   6.4451673  64.5518903
  31.7148553   8.9651673  64.8428903  32.0348553   9.1841673  64.0618903
  31.6148553   8.1001673  64.7878903  31.7468553   8.8701673  64.7198903
  33.1708553   4.9011673  51.4608903  32.4988553   4.9151673  52.0168903
  33.2658553   4.0531673  51.2768903  33.0858553   4.7781673  51.5158903
  37.1588553  13.6061673  52.5748903  37.5998553  13.6861673  53.3228903
  36.3538553  13.3901673  52.8328903  37.1048553  13.5861673  52.7238903
  45.4498553   2.0311673  61.8508903  46.3048553   2.1301673  61.9958903
  45.0808553   2.5841673  62.4158903  45.5218553   2.1281673  61.9558903
  36.4778553   8.2571673  66.2278903  36.0818553   9.0311673  66.3028903
  36.0718553   7.8841673  65.5518903  36.3598553   8.3161673  66.1388903
  45.7538553   7.3111673  60.3418903  46.4198553   7.8521673  60.5018903
  45.4088553   7.6221673  59.6028903  45.8008553   7.4371673  60.2568903
  46.0668553  15.3771673  56.1488903  45.8928553  14.7231673  56.6988903
  46.7798553  15.1061673  55.7258903  46.1468553  15.2401673  56.1678903
  34.4878553  12.6761673  53.1758903  34.2438553  12.3691673  53.9558903
  34.4548553  11.9731673  52.6598903  34.4468553  12.5271673  53.2148903
  37.3068553  10.9211673  51.9188903  36.4888553  10.6531673  52.0588903
  37.2788553  11.7731673  52.1038903  37.1818553  11.0081673  51.9668903
  43.7418553  12.8301673  63.8398903  43.9478553  13.1311673  64.6318903
  43.6808553  13.5521673  63.3548903  43.7628553  12.9811673  63.8848903
  43.2758553  17.0441673  68.0858903  42.5228553  17.0261673  67.6448903
  43.4438553  17.8961673  68.1698903  43.1898553  17.1671673  68.0328903
  38.5128553   6.3111673  67.2558903  38.1908553   5.7351673  66.6858903
  38.1538553   7.0661673  67.0098903  38.4128553   6.3371673  67.1358903
  48.5538553  11.4691673  63.2978903  48.5218553  10.6071673  63.1628903
  47.8608553  11.7711673  62.8638903  48.4468553  11.3861673  63.2138903
  36.9478553  16.6671673  67.5038903  36.9888553  16.7931673  68.3668903
  37.5988553  16.1071673  67.3478903  37.0498553  16.6031673  67.6088903
  46.6588553  14.7291673  62.0948903  47.1858553  14.6461673  61.4038903
  46.2678553  13.9511673  62.1488903  46.6788553  14.6021673  62.0008903
  34.5408553  15.0501673  68.8638903  35.1358553  15.4811673  69.3358903
  34.1768553  15.6741673  68.3748903  34.5748553  15.2061673  68.8608903
  42.5318553   5.9811673  58.7958903  43.0828553   5.3741673  59.0958903
  42.1068553   6.2441673  59.5108903  42.5508553   5.9301673  58.9448903
  32.7798553   4.6311673  58.2818903  32.4118553   4.9331673  59.0128903
  33.3138553   4.0021673  58.5658903  32.8038553   4.5831673  58.4318903
  32.4678553  13.0391673  65.7928903  31.8938553  13.4551673  66.3018903
  33.2008553  13.5041673  65.8878903  32.4918553  13.1691673  65.8818903
  44.5018553   7.8121673  55.3578903  44.5698553   6.9621673  55.5388903
  43.6788553   7.8981673  55.0798903  44.3898553   7.6991673  55.3438903
  34.2538553  16.3061673  54.5678903  34.1088553  16.4621673  53.7218903
  35.1198553  16.3851673  54.6458903  34.3608553  16.3411673  54.4548903
  38.4208553   8.7031673  54.2958903  38.5208553   8.8421673  53.4408903
  39.2388553   8.6431673  54.5918903  38.5558553   8.7141673  54.2128903
  47.5808553  16.7671673  51.7758903  48.2178553  16.6331673  52.3568903
  47.2398553  15.9731673  51.6588903  47.6248553  16.6301673  51.8438903
  47.7758553   9.1851673  68.5088903  48.4098553   9.0151673  69.0828903
  48.1928553   9.5881673  67.8568903  47.9308553   9.2201673  68.4978903
  43.6558553  13.0321673  54.0978903  43.4048553  12.9041673  54.9238903
  43.3388553  12.3371673  53.6768903  43.5718553  12.9111673  54.1578903
  48.4008553   3.7491673  69.2468903  48.2048553   4.3931673  69.8018903
  47.6788553   3.2591673  69.2388903  48.2658553   3.7721673  69.3278903
  48.2998553   4.6901673  62.2178903  47.4668553   4.9401673  62.1458903
  48.2438553   3.8501673  62.4468903  48.1688553   4.6031673  62.2408903
  45.1868553   9.2961673  69.8638903  46.0578553   9.2601673  69.8278903
  44.9678553   9.7161673  69.1318903  45.2838553   9.3521673  69.7508903
  34.9408553  15.1211673  61.0448903  34.8618553  14.3111673  60.7288903
  34.4968553  15.6081673  60.4728903  34.8638553  15.0731673  60.9138903
  40.5418553  11.2401673  53.5278903  41.2588553  10.8931673  53.1718903
  40.5078553  12.0401673  53.1798903  40.6428553  11.3071673  53.4238903
  32.5128553  17.3651673  64.6258903  33.0058553  17.3091673  65.3438903
  32.7008553  16.6321673  64.1908903  32.6138553  17.2481673  64.6678903
  41.7598553   6.7971673  42.4376493  41.2358553   7.3931673  42.8006493
  42.1568553   6.4291673  43.1216493  41.7408553   6.8311673  42.5926493
  31.6288553  10.9371673  37.8936493  31.1878553  11.0551673  38.6366493
  31.3458553  10.1621673  37.6086493  31.5218553  10.8401673  37.9616493
  31.3718553   4.7291673  34.4006493  30.5938553   4.8911673  34.0406493
  31.4108553   3.8581673  34.4226493  31.2628553   4.6241673  34.3506493
  34.5108553   9.9921673  33.0726493  34.1188553   9.6211673  32.3866493
  34.4308553   9.3941673  33.7016493  34.4408553   9.8491673  33.0636493
  44.4308553   7.8641673  39.1136493  44.5108553   7.8681673  38.2446493
  43.8468553   7.2321673  39.2626493  44.3558553   7.7711673  39.0076493
  34.1378553  11.6331673  36.9726493  34.7458553  11.4631673  37.5756493
  33.3868553  11.4931673  37.3936493  34.1168553  11.5871673  37.1236493
  33.0288553  14.7241673  33.0496493  33.4958553  14.8081673  32.3176493
  33.4838553  14.1461673  33.5186493  33.1648553  14.6511673  33.0106493
  31.5688553  13.6721673  44.1486493  31.6978553  13.3921673  44.9646493
  30.9588553  13.1311673  43.8396493  31.4978553  13.5511673  44.2236493
  38.1428553  11.1971673  49.2156493  37.9068553  11.1941673  50.0556493
  37.3948553  11.0491673  48.7916493  37.9968553  11.1741673  49.2766493
  33.0148553   8.1931673  38.3506493  32.5528553   7.8011673  37.7236493
  33.7148553   7.6801673  38.4426493  33.0498553   8.0601673  38.2716493
  37.5228553   3.8031673  43.6976493  38.2008553   3.8211673  43.1486493
  37.4778553   2.9671673  43.9426493  37.6158553   3.6821673  43.6526493
  38.1248553  14.3891673  46.4786493  38.2628553  15.1491673  46.0716493
  38.9158553  14.0241673  46.5056493  38.2618553  14.4481673  46.4226493
  35.0158553   6.2931673  38.3736493  35.8328553   6.1061673  38.6166493
  34.5388553   5.6791673  38.7696493  35.0658553   6.1751673  38.4686493
  39.2198553  12.2741673  40.9836493  39.5678553  11.4751673  41.0136493
  39.8848553  12.7781673  40.7286493  39.3698553  12.2301673  40.9506493
  39.2768553  11.7231673  37.1946493  39.6078553  11.0791673  37.6806493
  39.5168553  11.5121673  36.3836493  39.3608553  11.5971673  37.1466493
  41.2448553   5.8541673  48.5336493  40.3968553   5.7551673  48.3556493
  41.2738553   6.5991673  48.9876493  41.1238553   5.9501673  48.5746493
  43.2648553   3.4551673  32.1616493  42.8148553   4.1361673  32.4686493
  43.3788553   2.9511673  32.8646493  43.2158553   3.4811673  32.3106493
  31.4708553   5.9541673  41.3636493  31.2148553   6.7851673  41.2886493
  30.8068553   5.5711673  41.7806493  31.3348553   6.0201673  41.4146493
  31.3808553  15.6641673  39.2636493  30.7888553  16.2221673  38.9506493
  31.8068553  15.3951673  38.5516493  31.3568553  15.7061673  39.1126493
  37.2208553  13.5081673  36.7436493  36.6418553  13.2331673  37.3356493
  37.8448553  12.8991673  36.7686493  37.2278553  13.3781673  36.8346493
  43.3638553  15.7961673  34.2656493  44.0908553  16.2681673  34.3676493
  43.5928553  15.0021673  34.5456493  43.5058553  15.7491673  34.3226493
  41.5318553  16.1881673  36.2556493  41.7458553  16.7151673  36.9176493
  42.2988553  16.0141673  35.8766493  41.6768553  16.2401673  36.2976493
  37.8058553   2.9041673  51.1526493  37.9228553   2.4501673  50.4166493
  38.0938553   3.7021673  50.9496493  37.8658553   2.9551673  51.0136493
  32.9258553  14.3341673  37.1946493  33.5818553  13.7591673  37.2096493
  33.3148553  15.0831673  36.9736493  33.0808553  14.3591673  37.1646493
  48.6588553   3.4281673  38.4566493  48.3128553   4.1061673  38.8826493
  48.0228553   2.8301673  38.4726493  48.5138553   3.4401673  38.5216493
  33.5388553   2.5011673  50.1366493  32.7608553   2.1111673  50.0646493
  34.0298553   2.0891673  49.5456493  33.4958553   2.3821673  50.0386493
  33.7438553  12.8211673  40.6946493  34.1668553  12.4651673  40.0206493
  34.0678553  12.3991673  41.3866493  33.8538553  12.7061673  40.6976493
  36.9748553  15.6731673  39.9906493  37.8188553  15.7771673  39.7956493
  36.6778553  16.4911673  40.0586493  37.0558553  15.8091673  39.9716493
  40.7818553   5.0701673  38.0776493  41.0688553   4.8381673  37.2876493
  41.5138553   5.1491673  38.5466493  40.9318553   5.0471673  38.0306493
  41.5038553   5.4091673  33.1986493  41.7848553   6.1971673  33.4476493
  40.7278553   5.5741673  32.8356493  41.4308553   5.5501673  33.1816493
  35.9728553  16.8921673  45.7306493  36.2648553  16.8251673  46.5506493
  35.3468553  16.2871673  45.6856493  35.9238553  16.7931673  45.8456493
  30.8868553   3.0491673  47.7226493  30.8828553   3.6361673  48.3686493
  31.4808553   3.3611673  47.1656493  30.9738553   3.1821673  47.7356493
  43.2248553  13.3831673  48.2646493  43.1908553  13.7651673  49.0486493
  44.0788553  13.3411673  48.0936493  43.3458553  13.4331673  48.3556493
  40.3628553  13.5801673  33.0146493  40.1818553  14.1251673  33.6716493
  41.1288553  13.8701673  32.7136493  40.4488553  13.7041673  33.0676493
  31.8238553   2.6441673  36.6376493  31.7098553   1.7801673  36.6686493
  31.3488553   2.9381673  37.3076493  31.7368553   2.5601673  36.7406493
  33.9658553  15.0541673  44.8526493  33.2678553  14.5461673  44.9786493
  34.2258553  14.8491673  44.0446493  33.9008553  14.9491673  44.7516493
  41.1278553   3.8521673  35.3826493  40.6198553   3.1901673  35.1286493
  41.1798553   4.3561673  34.6726493  41.0608553   3.8291673  35.2406493
  39.7258553   3.1601673  39.7956493  39.7998553   3.7281673  39.1376493
  39.8468553   3.6521673  40.5056493  39.7538553   3.3171673  39.8036493
  35.3268553  13.9051673  47.4196493  36.1678553  13.9681673  47.1976493
  35.2898553  14.3021673  48.1956493  35.4458553  13.9731673  47.5016493
  37.2898553   9.4161673  42.1686493  37.4618553   9.2061673  42.9976493
  36.6348553   8.8821673  41.9526493  37.2188553   9.3061673  42.2596493
  43.5178553   3.3301673  45.6836493  43.4228553   3.6491673  46.4896493
  42.9248553   2.6911673  45.6456493  43.4158553   3.2821673  45.7976493
  38.0398553   9.3541673  44.7586493  38.0928553  10.2011673  44.9606493
  37.7548553   8.9841673  45.4956493  38.0058553   9.4241673  44.8966493
  44.2168553  10.0491673  43.8886493  43.7028553   9.6371673  44.4596493
  44.0908553  10.8931673  44.0696493  44.1228553  10.1131673  43.9996493
  30.8608553  13.7251673  50.9696493  31.6168553  14.0741673  51.2276493
  31.0378553  12.8721673  50.9126493  30.9988553  13.6501673  50.9996493
  47.2378553   3.5101673  46.8276493  48.0098553   3.2851673  47.1646493
  46.7628553   3.7271673  47.5276493  47.2818553   3.5091673  46.9806493
  34.7818553   2.7931673  39.7976493  35.0538553   2.3631673  39.0896493
  34.6058553   2.1571673  40.3686493  34.7958553   2.6361673  39.7776493
  47.4698553  10.4881673  34.0156493  47.5888553  10.2011673  34.8306493
  48.2768553  10.5091673  33.6856493  47.6058553  10.4491673  34.0876493
  34.6058553  10.2201673  39.3466493  35.4568553  10.1401673  39.1736493
  34.2488553   9.5381673  38.9346493  34.6788553  10.1071673  39.2596493
  33.3728553  16.9451673  40.5836493  32.6998553  16.4471673  40.3386493
  33.7758553  17.1301673  39.8326493  33.3328553  16.8991673  40.4366493
  32.9228553   3.8951673  42.8796493  33.7658553   4.1151673  42.8366493
  32.5338553   4.4681673  42.3486493  32.9898553   4.0121673  42.7946493
  49.7038553  14.9971673  48.2696493  49.0218553  15.3071673  47.8226493
  49.3348553  14.5391673  48.9146493  49.5478553  14.9751673  48.2986493
  45.3648553   7.0251673  33.6006493  45.1448553   7.7561673  33.1786493
  44.9168553   7.0761673  34.3476493  45.2658553   7.1401673  33.6486493
  36.9738553  10.2271673  37.5816493  37.6868553  10.7221673  37.6716493
  37.1958553   9.6601673  36.9556493  37.1118553  10.2161673  37.5026493
  31.1298553  11.8701673  40.9016493  30.4628553  12.3581673  41.1776493
  31.8098553  12.4151673  40.9306493  31.1318553  12.0221673  40.9466493
  38.7768553   5.5801673  50.9976493  38.2928553   6.1571673  51.4396493
  38.7488553   5.8751673  50.1766493  38.7008553   5.7091673  50.9416493
  49.8748553   6.2641673  45.6096493  50.0898553   5.4641673  45.3336493
  49.0248553   6.3241673  45.4206493  49.7808553   6.1551673  45.5406493
  31.1958553   8.5541673  36.0046493  31.0108553   7.7151673  36.1566493
  31.8548553   8.5181673  35.4346493  31.2658553   8.4251673  35.9426493
  41.4968553  13.9301673  39.9086493  40.9738553  14.5641673  39.6156493
  41.8068553  13.5661673  39.1796493  41.4648553  13.9701673  39.7576493
  31.3678553  12.7181673  35.5796493  31.9198553  13.2871673  35.9436493
  31.1358553  12.2031673  36.2446493  31.4148553  12.7261673  35.7316493
  35.5718553  11.7181673  42.6686493  36.0388553  12.0071673  43.3466493
  36.1438553  11.2401673  42.2146493  35.7258553  11.6901673  42.7016493
  44.0078553   3.7321673  40.4056493  44.3518553   3.8841673  41.1926493
  43.5548553   2.9941673  40.5186493  43.9918553   3.6451673  40.5386493
  31.1978553  11.1671673  33.2076493  31.9538553  10.7351673  33.2656493
  31.2128553  11.6991673  33.8986493  31.3118553  11.1821673  33.3186493
  32.1378553   9.3881673  41.2126493  32.5688553   9.2591673  40.4656493
  31.9328553  10.2361673  41.1866493  32.1708553   9.4941673  41.0986493
  38.4838553   2.9521673  34.8626493  38.4818553   2.8351673  33.9976493
  38.3028553   3.8001673  34.9546493  38.4568553   3.0601673  34.7486493
  36.2218553  12.9041673  39.4946493  36.3478553  13.7471673  39.6816493
  36.8898553  12.5051673  39.8906493  36.3398553  12.9701673  39.5806493
  34.3518553   6.3871673  49.3566493  33.8158553   5.8811673  49.8246493
  34.3718553   5.9971673  48.5766493  34.2748553   6.2541673  49.3106493
  34.8368553   5.7841673  34.4966493  34.7088553   5.3361673  35.2346493
  34.2548553   5.4421673  33.9446493  34.7318553   5.6671673  34.5246493
  35.0038553   7.6141673  41.0956493  34.2228553   7.5551673  40.7126493
  35.0758553   6.8621673  41.5326493  34.8988553   7.4951673  41.1036493
  35.4338553   7.3511673  44.5636493  35.4588553   6.6761673  44.0126493
  34.7878553   7.8471673  44.2516493  35.3428553   7.3241673  44.4366493
  45.3288553   5.0641673  42.9596493  44.6668553   5.3921673  43.4226493
  45.5158553   5.6981673  42.3906493  45.2588553   5.2061673  42.9436493
  39.5338553  16.1281673  43.9556493  39.2568553  15.4871673  43.4326493
  39.3258553  16.8541673  43.5176493  39.4628553  16.1411673  43.8136493
  43.5218553   3.0331673  36.4706493  44.0118553   3.7501673  36.3936493
  42.7318553   3.2941673  36.2076493  43.4778553   3.1771673  36.4206493
  33.2328553   8.7061673  50.1226493  33.1958553   9.2071673  49.4086493
  33.5638553   7.9541673  49.8276493  33.2758553   8.6681673  49.9736493
  44.8358553  10.9111673  48.3806493  45.3198553  11.6291673  48.4786493
  45.2298553  10.4841673  47.7296493  44.9658553  10.9541673  48.2986493
  39.1318553  13.7561673  49.5576493  39.4858553  13.5781673  50.3346493
  38.6958553  13.0271673  49.3586493  39.1198553  13.6221673  49.6436493
  40.1038553   4.5031673  42.1956493  40.5838553   5.2021673  42.4036493
  40.4768553   3.8561673  42.6466493  40.2298553   4.5111673  42.2926493
  42.2928553   7.6721673  34.4696493  42.2848553   8.3941673  33.9796493
  41.6538553   7.8071673  35.0466493  42.1978553   7.7991673  34.4826493
  47.2648553  11.5421673  38.4506493  47.6208553  11.1921673  39.1656493
  47.2568553  10.8811673  37.8806493  47.3168553  11.3921673  38.4716493
  43.3098553  14.6081673  42.2946493  42.7068553  14.3121673  41.7376493
  43.8548553  15.0601673  41.7856493  43.3008553  14.6311673  42.1366493
  43.3228553  11.4591673  41.6946493  42.5258553  11.6831673  41.9686493
  43.5808553  10.8651673  42.2796493  43.2428553  11.4041673  41.8216493
  37.2148553  16.2711673  36.1426493  37.0678553  15.4951673  36.5136493
  37.9038553  16.1241673  35.6276493  37.2948553  16.1341673  36.1216493
  39.5068553  15.7871673  34.5446493  40.1288553  15.9501673  35.1346493
  39.5428553  16.4781673  34.0126493  39.6038553  15.9131673  34.5536493
  46.5828553   9.4571673  46.5406493  46.6378553   9.5821673  45.6786493
  47.3358553   9.7771673  46.8426493  46.7018553   9.5221673  46.4576493
  42.7738553  14.8061673  50.8176493  42.9378553  15.0891673  51.6266493
  43.0368553  15.4671673  50.3126493  42.8368553  14.9461673  50.8626493
  34.0078553   8.3211673  35.3736493  34.3318553   7.5421673  35.1516493
  34.6538553   8.6891673  35.8286493  34.1508553   8.2601673  35.4076493
  42.3138553   9.2631673  46.1406493  42.1588553   9.8731673  46.7446493
  42.8478553   8.7051673  46.5466493  42.3698553   9.2711673  46.2896493
  40.6978553   7.6631673  36.7986493  40.7568553   8.3131673  37.3776493
  40.5088553   6.9671673  37.2896493  40.6788553   7.6561673  36.9566493
  45.9238553  11.9921673  42.6676493  45.4448553  12.2901673  42.0016493
  45.5678553  11.2161673  42.8456493  45.8008553  11.9211673  42.5956493
  35.1938553   2.1801673  33.3106493  34.6828553   2.2331673  32.6046493
  35.9778553   2.4201673  33.0146493  35.2338553   2.2231673  33.1626493
  39.9208553   9.7101673  41.2296493  39.0738553   9.5161673  41.3106493
  40.2448553   9.5451673  42.0226493  39.8428553   9.6571673  41.3586493
  36.6728553  16.4401673  32.1156493  37.1118553  15.7431673  32.4036493
  36.8798553  17.0641673  32.6886493  36.7688553  16.4291673  32.2426493
  33.7688553   9.4031673  43.5456493  34.4908553   9.8911673  43.5086493
  33.4988553   9.3731673  42.7166493  33.8358553   9.4711673  43.4176493
  36.9988553   4.5741673  40.2806493  37.8448553   4.3841673  40.3786493
  36.6288553   3.7971673  40.1426493  37.0688553   4.4311673  40.2746493
  31.8198553   5.9121673  36.9356493  32.3088553   5.6201673  37.5966493
  31.9488553   5.3191673  36.3086493  31.9108553   5.7811673  36.9406493
  46.8548553   8.9341673  43.7866493  46.8478553   8.1581673  44.1846493
  46.0138553   9.1681673  43.7796493  46.7298553   8.8541673  43.8446493
  36.3448553   7.3461673  32.4216493  35.7348553   6.9411673  32.8956493
  35.9588553   7.4641673  31.6486493  36.1978553   7.3031673  32.3776493
  33.1638553  10.4551673  47.8236493  32.7428553   9.9371673  47.2626493
  32.8118553  11.2411673  47.6806493  33.0498553  10.4951673  47.7196493
  48.1108553   9.0051673  41.2236493  47.8248553   9.4061673  41.9436493
  48.9708553   8.9431673  41.3506493  48.1958553   9.0551673  41.3486493
  37.7998553   5.8071673  35.1316493  38.0718553   6.6331673  35.1986493
  36.9368553   5.8821673  35.0356493  37.7128553   5.9401673  35.1266493
  45.7728553   2.9291673  49.7636493  45.2478553   3.3881673  50.2876493
  45.4118553   2.1341673  49.7576493  45.6418553   2.8791673  49.8396493
  31.2798553   1.7771673  41.6676493  31.3238553   2.1211673  40.8666493
  32.0348553   2.0141673  42.0346493  31.3978553   1.8631673  41.6036493
  44.2648553   6.4981673  49.8396493  44.3378553   6.6021673  50.7026493
  43.6308553   7.0561673  49.6186493  44.1818553   6.5961673  49.9346493
  46.5328553   6.8171673  48.2046493  46.8518553   7.6031673  48.4076493
  46.1628553   6.5471673  48.9476493  46.5258553   6.8931673  48.3446493
  45.8468553  13.2411673  33.7346493  46.1808553  12.4351673  33.7696493
  45.0918553  13.1691673  34.1646493  45.7848553  13.1111673  33.8036493
  46.3288553   5.0751673  39.3936493  45.5838553   4.7521673  39.7116493
  46.3308553   5.9011673  39.6736493  46.2188553   5.1491673  39.4816493
  49.2308553   7.3591673  50.9396493  49.1788553   7.0181673  50.1386493
  49.9678553   7.8261673  50.9176493  49.3318553   7.3781673  50.8176493
  48.7688553  11.0351673  47.1456493  49.3968553  10.4861673  46.8896493
  48.7078553  11.6001673  46.4836493  48.8528553  11.0381673  47.0096493
  43.2208553  11.1161673  33.1376493  43.9048553  10.6021673  32.9686493
  42.8038553  11.1621673  32.3726493  43.2598553  11.0471673  32.9996493
  37.9028553  12.2661673  44.4416493  37.6048553  12.8581673  45.0086493
  37.9578553  12.7081673  43.6926493  37.8668553  12.4191673  44.4146493
  35.8818553  11.2161673  47.8396493  35.0758553  10.9261673  48.0066493
  35.7928553  12.0841673  47.8456493  35.7498553  11.3011673  47.8646493
  40.4188553   8.6891673  43.9326493  40.8948553   9.0631673  44.5606493
  39.5958553   8.8231673  44.1916493  40.3678553   8.7641673  44.0636493
  37.1288553   4.2921673  46.6736493  37.2898553   3.5481673  47.1006493
  37.0838553   4.0431673  45.8386493  37.1458553   4.1451673  46.6136493
  37.8658553  14.3101673  42.5496493  37.2418553  14.8921673  42.3676493
  38.1138553  14.0241673  41.7636493  37.8098553  14.3541673  42.4066493
  42.1748553  10.9441673  49.5386493  42.9318553  11.2301673  49.2126493
  41.6278553  10.9961673  48.8606493  42.2058553  10.9941673  49.3896493
  46.0838553  13.4941673  48.0426493  46.4298553  13.7641673  48.7966493
  46.3778553  14.0761673  47.4626493  46.1788553  13.6201673  48.0686493
  47.9468553   5.6401673  33.3816493  48.3248553   6.3171673  32.9816493
  47.1048553   5.8641673  33.4126493  47.8778553   5.7731673  33.3266493
  39.4598553   9.0861673  32.4646493  38.6548553   8.9091673  32.1796493
  39.4268553   9.9371673  32.6566493  39.3358553   9.1851673  32.4516493
  35.3898553   5.1531673  42.6146493  35.8298553   5.0501673  41.8686493
  35.9348553   4.8401673  43.2196493  35.5348553   5.0921673  42.5936493
  43.4058553   4.2551673  48.2066493  42.7578553   4.7251673  48.5546493
  43.9708553   4.1661673  48.8656493  43.3938553   4.3111673  48.3556493
  43.0938553   5.7921673  44.5046493  43.3958553   6.2121673  45.2076493
  43.1298553   4.9521673  44.7366493  43.1438553   5.7301673  44.6426493
  40.5188553  15.9591673  48.4296493  40.9968553  15.3591673  48.0136493
  40.1678553  15.5161673  49.0946493  40.5378553  15.8051673  48.4666493
  45.6418553   5.2391673  36.7566493  45.8488553   5.0381673  37.5806493
  46.3978553   5.5071673  36.4146493  45.7838553   5.2491673  36.8276493
  47.1068553   9.2661673  36.6106493  47.5828553   8.5371673  36.5626493
  46.2858553   8.9801673  36.5346493  47.0558553   9.1161673  36.5916493
  40.5778553  11.1781673  47.4496493  39.7828553  11.1141673  47.8006493
  40.6488553  12.0251673  47.2546493  40.4708553  11.2931673  47.4726493
  36.4078553  17.3851673  42.7666493  36.4188553  17.4441673  43.6366493
  35.9828553  16.6381673  42.6166493  36.3468553  17.2831673  42.8726493
  34.5658553   3.2801673  35.9216493  34.6918553   2.9511673  35.1236493
  33.7538553   3.0311673  36.1206493  34.4648553   3.1951673  35.8336493
  43.3228553  10.4331673  38.9656493  43.3988553  10.7741673  39.7646493
  43.4918553   9.5861673  39.0866493  43.3588553  10.3581673  39.1016493
  40.8448553   9.7071673  38.5306493  40.5468553   9.3921673  39.2876493
  41.5398553  10.1801673  38.7656493  40.9038553   9.7301673  38.6776493
  41.0668553  13.8251673  46.5576493  41.7538553  13.7111673  47.0826493
  41.2008553  14.6161673  46.2136493  41.1878553  13.9251673  46.5846493
  49.2428553   6.4341673  48.3686493  48.3878553   6.3121673  48.4946493
  49.3958553   6.0391673  47.6056493  49.1388553   6.3571673  48.2746493
  43.7558553   7.0991673  46.9446493  43.5008553   6.3801673  47.3666493
  44.5768553   7.2151673  47.2146493  43.8398553   7.0101673  47.0466493
  33.1718553  16.8831673  48.2086493  32.5178553  16.3141673  48.3066493
  32.7968553  17.6561673  48.3596493  33.0198553  16.9131673  48.2456493
  41.6898553   8.2891673  50.1316493  42.0128553   8.9751673  49.6996493
  40.9858553   8.6121673  50.5336493  41.6328553   8.4381673  50.1266493
  41.4748553  11.7531673  43.9906493  40.7808553  12.1551673  44.3336493
  42.1518553  12.1861673  44.3296493  41.4718553  11.8761673  44.0916493
  46.8518553  14.3461673  50.5706493  47.6278553  13.9561673  50.6536493
  46.3828553  14.0101673  51.2256493  46.8968553  14.2391673  50.6796493
  34.5428553   5.2911673  46.3376493  34.9178553   5.9101673  45.8506493
  35.2168553   4.8171673  46.6226493  34.6978553   5.3131673  46.3076493
  32.3178553   3.7391673  45.6126493  32.3948553   3.5701673  44.7596493
  33.0638553   4.1451673  45.8096493  32.4388553   3.7741673  45.5156493
  47.8768553   6.3791673  36.0526493  47.9798553   6.3211673  35.1886493
  48.6178553   6.0471673  36.3706493  48.0018553   6.3221673  35.9716493
  41.7968553  13.3441673  37.1596493  41.5918553  14.1771673  37.0006493
  41.0218553  12.9621673  37.2816493  41.6518553  13.4111673  37.1546493
  46.9788553   6.5251673  45.4086493  46.9768553   5.6621673  45.5326493
  47.0458553   6.8491673  46.2156493  46.9888553   6.4451673  45.5456493
  31.7148553   8.9651673  45.8366493  32.0348553   9.1841673  45.0556493
  31.6148553   8.1001673  45.7816493  31.7468553   8.8701673  45.7136493
  33.1708553   4.9011673  32.4546493  32.4988553   4.9151673  33.0106493
  33.2658553   4.0531673  32.2706493  33.0858553   4.7781673  32.5096493
  37.1588553  13.6061673  33.5686493  37.5998553  13.6861673  34.3166493
  36.3538553  13.3901673  33.8266493  37.1048553  13.5861673  33.7176493
  45.4498553   2.0311673  42.8446493  46.3048553   2.1301673  42.9896493
  45.0808553   2.5841673  43.4096493  45.5218553   2.1281673  42.9496493
  36.4778553   8.2571673  47.2216493  36.0818553   9.0311673  47.2966493
  36.0718553   7.8841673  46.5456493  36.3598553   8.3161673  47.1326493
  45.7538553   7.3111673  41.3356493  46.4198553   7.8521673  41.4956493
  45.4088553   7.6221673  40.5966493  45.8008553   7.4371673  41.2506493
  34.4878553  12.6761673  34.1696493  34.2438553  12.3691673  34.9496493
  34.4548553  11.9731673  33.6536493  34.4468553  12.5271673  34.2086493
  37.3068553  10.9211673  32.9126493  36.4888553  10.6531673  33.0526493
  37.2788553  11.7731673  33.0976493  37.1818553  11.0081673  32.9606493
  43.7418553  12.8301673  44.8336493  43.9478553  13.1311673  45.6256493
  43.6808553  13.5521673  44.3486493  43.7628553  12.9811673  44.8786493
  43.2758553  17.0441673  49.0796493  42.5228553  17.0261673  48.6386493
  43.4438553  17.8961673  49.1636493  43.1898553  17.1671673  49.0266493
  38.5128553   6.3111673  48.2496493  38.1908553   5.7351673  47.6796493
  38.1538553   7.0661673  48.0036493  38.4128553   6.3371673  48.1296493
  48.5538553  11.4691673  44.2916493  48.5218553  10.6071673  44.1566493
  47.8608553  11.7711673  43.8576493  48.4468553  11.3861673  44.2076493
  36.9478553  16.6671673  48.4976493  36.9888553  16.7931673  49.3606493
  37.5988553  16.1071673  48.3416493  37.0498553  16.6031673  48.6026493
  34.5408553  15.0501673  49.8576493  35.1358553  15.4811673  50.3296493
  34.1768553  15.6741673  49.3686493  34.5748553  15.2061673  49.8546493
  42.5318553   5.9811673  39.7896493  43.0828553   5.3741673  40.0896493
  42.1068553   6.2441673  40.5046493  42.5508553   5.9301673  39.9386493
  32.7798553   4.6311673  39.2756493  32.4118553   4.9331673  40.0066493
  33.3138553   4.0021673  39.5596493  32.8038553   4.5831673  39.4256493
  32.4678553  13.0391673  46.7866493  31.8938553  13.4551673  47.2956493
  33.2008553  13.5041673  46.8816493  32.4918553  13.1691673  46.8756493
  44.5018553   7.8121673  36.3516493  44.5698553   6.9621673  36.5326493
  43.6788553   7.8981673  36.0736493  44.3898553   7.6991673  36.3376493
  34.2538553  16.3061673  35.5616493  34.1088553  16.4621673  34.7156493
  35.1198553  16.3851673  35.6396493  34.3608553  16.3411673  35.4486493
  38.4208553   8.7031673  35.2896493  38.5208553   8.8421673  34.4346493
  39.2388553   8.6431673  35.5856493  38.5558553   8.7141673  35.2066493
  47.7758553   9.1851673  49.5026493  48.4098553   9.0151673  50.0766493
  48.1928553   9.5881673  48.8506493  47.9308553   9.2201673  49.4916493
  43.6558553  13.0321673  35.0916493  43.4048553  12.9041673  35.9176493
  43.3388553  12.3371673  34.6706493  43.5718553  12.9111673  35.1516493
  48.4008553   3.7491673  50.2406493  48.2048553   4.3931673  50.7956493
  47.6788553   3.2591673  50.2326493  48.2658553   3.7721673  50.3216493
  48.2998553   4.6901673  43.2116493  47.4668553   4.9401673  43.1396493
  48.2438553   3.8501673  43.4406493  48.1688553   4.6031673  43.2346493
  45.1868553   9.2961673  50.8576493  46.0578553   9.2601673  50.8216493
  44.9678553   9.7161673  50.1256493  45.2838553   9.3521673  50.7446493
  34.9408553  15.1211673  42.0386493  34.8618553  14.3111673  41.7226493
  34.4968553  15.6081673  41.4666493  34.8638553  15.0731673  41.9076493
  40.5418553  11.2401673  34.5216493  41.2588553  10.8931673  34.1656493
  40.5078553  12.0401673  34.1736493  40.6428553  11.3071673  34.4176493
  32.5128553  17.3651673  45.6196493  33.0058553  17.3091673  46.3376493
  32.7008553  16.6321673  45.1846493  32.6138553  17.2481673  45.6616493
  41.7598553   6.7971673  23.4314083  41.2358553   7.3931673  23.7944083
  42.1568553   6.4291673  24.1154083  41.7408553   6.8311673  23.5864083
  31.6288553  10.9371673  18.8874083  31.1878553  11.0551673  19.6304083
  31.3458553  10.1621673  18.6024083  31.5218553  10.8401673  18.9554083
  47.9038553  14.2381673  16.4024083  48.6048553  13.7191673  16.3984083
  47.3168553  13.7931673  15.9334083  47.9208553  14.0951673  16.3324083
  31.3718553   4.7291673  15.3944083  30.5938553   4.8911673  15.0344083
  31.4108553   3.8581673  15.4164083  31.2628553   4.6241673  15.3444083
  34.5108553   9.9921673  14.0664083  34.1188553   9.6211673  13.3804083
  34.4308553   9.3941673  14.6954083  34.4408553   9.8491673  14.0574083
  44.4308553   7.8641673  20.1074083  44.5108553   7.8681673  19.2384083
  43.8468553   7.2321673  20.2564083  44.3558553   7.7711673  20.0014083
  34.1378553  11.6331673  17.9664083  34.7458553  11.4631673  18.5694083
  33.3868553  11.4931673  18.3874083  34.1168553  11.5871673  18.1174083
  33.0288553  14.7241673  14.0434083  33.4958553  14.8081673  13.3114083
  33.4838553  14.1461673  14.5124083  33.1648553  14.6511673  14.0044083
  31.5688553  13.6721673  25.1424083  31.6978553  13.3921673  25.9584083
  30.9588553  13.1311673  24.8334083  31.4978553  13.5511673  25.2174083
  38.1428553  11.1971673  30.2094083  37.9068553  11.1941673  31.0494083
  37.3948553  11.0491673  29.7854083  37.9968553  11.1741673  30.2704083
  33.0148553   8.1931673  19.3444083  32.5528553   7.8011673  18.7174083
  33.7148553   7.6801673  19.4364083  33.0498553   8.0601673  19.2654083
  37.5228553   3.8031673  24.6914083  38.2008553   3.8211673  24.1424083
  37.4778553   2.9671673  24.9364083  37.6158553   3.6821673  24.6464083
  38.1248553  14.3891673  27.4724083  38.2628553  15.1491673  27.0654083
  38.9158553  14.0241673  27.4994083  38.2618553  14.4481673  27.4164083
  35.0158553   6.2931673  19.3674083  35.8328553   6.1061673  19.6104083
  34.5388553   5.6791673  19.7634083  35.0658553   6.1751673  19.4624083
  39.2198553  12.2741673  21.9774083  39.5678553  11.4751673  22.0074083
  39.8848553  12.7781673  21.7224083  39.3698553  12.2301673  21.9444083
  39.2768553  11.7231673  18.1884083  39.6078553  11.0791673  18.6744083
  39.5168553  11.5121673  17.3774083  39.3608553  11.5971673  18.1404083
  41.2448553   5.8541673  29.5274083  40.3968553   5.7551673  29.3494083
  41.2738553   6.5991673  29.9814083  41.1238553   5.9501673  29.5684083
  43.2648553   3.4551673  13.1554083  42.8148553   4.1361673  13.4624083
  43.3788553   2.9511673  13.8584083  43.2158553   3.4811673  13.3044083
  31.4708553   5.9541673  22.3574083  31.2148553   6.7851673  22.2824083
  30.8068553   5.5711673  22.7744083  31.3348553   6.0201673  22.4084083
  31.3808553  15.6641673  20.2574083  30.7888553  16.2221673  19.9444083
  31.8068553  15.3951673  19.5454083  31.3568553  15.7061673  20.1064083
  37.2208553  13.5081673  17.7374083  36.6418553  13.2331673  18.3294083
  37.8448553  12.8991673  17.7624083  37.2278553  13.3781673  17.8284083
  43.3638553  15.7961673  15.2594083  44.0908553  16.2681673  15.3614083
  43.5928553  15.0021673  15.5394083  43.5058553  15.7491673  15.3164083
  41.5318553  16.1881673  17.2494083  41.7458553  16.7151673  17.9114083
  42.2988553  16.0141673  16.8704083  41.6768553  16.2401673  17.2914083
  37.8058553   2.9041673  32.1464083  37.9228553   2.4501673  31.4104083
  38.0938553   3.7021673  31.9434083  37.8658553   2.9551673  32.0074083
  32.9258553  14.3341673  18.1884083  33.5818553  13.7591673  18.2034083
  33.3148553  15.0831673  17.9674083  33.0808553  14.3591673  18.1584083
  48.6588553   3.4281673  19.4504083  48.3128553   4.1061673  19.8764083
  48.0228553   2.8301673  19.4664083  48.5138553   3.4401673  19.5154083
  43.9708553  16.1981673  25.5544083  44.7148553  16.6541673  25.5444083
  43.8498553  15.9841673  24.7174083  44.0628553  16.2341673  25.4294083
  33.5388553   2.5011673  31.1304083  32.7608553   2.1111673  31.0584083
  34.0298553   2.0891673  30.5394083  33.4958553   2.3821673  31.0324083
  33.7438553  12.8211673  21.6884083  34.1668553  12.4651673  21.0144083
  34.0678553  12.3991673  22.3804083  33.8538553  12.7061673  21.6914083
  36.9748553  15.6731673  20.9844083  37.8188553  15.7771673  20.7894083
  36.6778553  16.4911673  21.0524083  37.0558553  15.8091673  20.9654083
  40.7818553   5.0701673  19.0714083  41.0688553   4.8381673  18.2814083
  41.5138553   5.1491673  19.5404083  40.9318553   5.0471673  19.0244083
  41.5038553   5.4091673  14.1924083  41.7848553   6.1971673  14.4414083
  40.7278553   5.5741673  13.8294083  41.4308553   5.5501673  14.1754083
  45.5448553  17.3831673  15.6594083  46.2098553  17.2351673  15.1144083
  45.9048553  17.3001673  16.4494083  45.6968553  17.3491673  15.6954083
  35.9728553  16.8921673  26.7244083  36.2648553  16.8251673  27.5444083
  35.3468553  16.2871673  26.6794083  35.9238553  16.7931673  26.8394083
  30.8868553   3.0491673  28.7164083  30.8828553   3.6361673  29.3624083
  31.4808553   3.3611673  28.1594083  30.9738553   3.1821673  28.7294083
  43.2248553  13.3831673  29.2584083  43.1908553  13.7651673  30.0424083
  44.0788553  13.3411673  29.0874083  43.3458553  13.4331673  29.3494083
  40.3628553  13.5801673  14.0084083  40.1818553  14.1251673  14.6654083
  41.1288553  13.8701673  13.7074083  40.4488553  13.7041673  14.0614083
  31.8238553   2.6441673  17.6314083  31.7098553   1.7801673  17.6624083
  31.3488553   2.9381673  18.3014083  31.7368553   2.5601673  17.7344083
  33.9658553  15.0541673  25.8464083  33.2678553  14.5461673  25.9724083
  34.2258553  14.8491673  25.0384083  33.9008553  14.9491673  25.7454083
  41.1278553   3.8521673  16.3764083  40.6198553   3.1901673  16.1224083
  41.1798553   4.3561673  15.6664083  41.0608553   3.8291673  16.2344083
  41.6768553  16.5471673  26.7564083  42.4448553  16.4671673  26.3504083
  41.0938553  16.4261673  26.1184083  41.7038553  16.5171673  26.6024083
  47.9538553  17.1501673  19.6574083  47.4988553  17.8671673  19.8584083
  47.3398553  16.5791673  19.4154083  47.7958553  17.1721673  19.6514083
  39.7258553   3.1601673  20.7894083  39.7998553   3.7281673  20.1314083
  39.8468553   3.6521673  21.4994083  39.7538553   3.3171673  20.7974083
  44.9508553  12.9951673  19.2014083  45.6518553  12.5131673  19.3904083
  44.2908553  12.4261673  19.2464083  44.9568553  12.8401673  19.2354083
  35.3268553  13.9051673  28.4134083  36.1678553  13.9681673  28.1914083
  35.2898553  14.3021673  29.1894083  35.4458553  13.9731673  28.4954083
  37.2898553   9.4161673  23.1624083  37.4618553   9.2061673  23.9914083
  36.6348553   8.8821673  22.9464083  37.2188553   9.3061673  23.2534083
  43.5178553   3.3301673  26.6774083  43.4228553   3.6491673  27.4834083
  42.9248553   2.6911673  26.6394083  43.4158553   3.2821673  26.7914083
  38.0398553   9.3541673  25.7524083  38.0928553  10.2011673  25.9544083
  37.7548553   8.9841673  26.4894083  38.0058553   9.4241673  25.8904083
  44.2168553  10.0491673  24.8824083  43.7028553   9.6371673  25.4534083
  44.0908553  10.8931673  25.0634083  44.1228553  10.1131673  24.9934083
  30.8608553  13.7251673  31.9634083  31.6168553  14.0741673  32.2214083
  31.0378553  12.8721673  31.9064083  30.9988553  13.6501673  31.9934083
  47.2378553   3.5101673  27.8214083  48.0098553   3.2851673  28.1584083
  46.7628553   3.7271673  28.5214083  47.2818553   3.5091673  27.9744083
  34.7818553   2.7931673  20.7914083  35.0538553   2.3631673  20.0834083
  34.6058553   2.1571673  21.3624083  34.7958553   2.6361673  20.7714083
  47.4698553  10.4881673  15.0094083  47.5888553  10.2011673  15.8244083
  48.2768553  10.5091673  14.6794083  47.6058553  10.4491673  15.0814083
  34.6058553  10.2201673  20.3404083  35.4568553  10.1401673  20.1674083
  34.2488553   9.5381673  19.9284083  34.6788553  10.1071673  20.2534083
  33.3728553  16.9451673  21.5774083  32.6998553  16.4471673  21.3324083
  33.7758553  17.1301673  20.8264083  33.3328553  16.8991673  21.4304083
  32.9228553   3.8951673  23.8734083  33.7658553   4.1151673  23.8304083
  32.5338553   4.4681673  23.3424083  32.9898553   4.0121673  23.7884083
  49.7038553  14.9971673  29.2634083  49.0218553  15.3071673  28.8164083
  49.3348553  14.5391673  29.9084083  49.5478553  14.9751673  29.2924083
  45.3648553   7.0251673  14.5944083  45.1448553   7.7561673  14.1724083
  44.9168553   7.0761673  15.3414083  45.2658553   7.1401673  14.6424083
  36.9738553  10.2271673  18.5754083  37.6868553  10.7221673  18.6654083
  37.1958553   9.6601673  17.9494083  37.1118553  10.2161673  18.4964083
  31.1298553  11.8701673  21.8954083  30.4628553  12.3581673  22.1714083
  31.8098553  12.4151673  21.9244083  31.1318553  12.0221673  21.9404083
  38.7768553   5.5801673  31.9914083  38.2928553   6.1571673  32.4334083
  38.7488553   5.8751673  31.1704083  38.7008553   5.7091673  31.9354083
  49.8748553   6.2641673  26.6034083  50.0898553   5.4641673  26.3274083
  49.0248553   6.3241673  26.4144083  49.7808553   6.1551673  26.5344083
  31.1958553   8.5541673  16.9984083  31.0108553   7.7151673  17.1504083
  31.8548553   8.5181673  16.4284083  31.2658553   8.4251673  16.9364083
  41.4968553  13.9301673  20.9024083  40.9738553  14.5641673  20.6094083
  41.8068553  13.5661673  20.1734083  41.4648553  13.9701673  20.7514083
  31.3678553  12.7181673  16.5734083  31.9198553  13.2871673  16.9374083
  31.1358553  12.2031673  17.2384083  31.4148553  12.7261673  16.7254083
  35.5718553  11.7181673  23.6624083  36.0388553  12.0071673  24.3404083
  36.1438553  11.2401673  23.2084083  35.7258553  11.6901673  23.6954083
  44.0078553   3.7321673  21.3994083  44.3518553   3.8841673  22.1864083
  43.5548553   2.9941673  21.5124083  43.9918553   3.6451673  21.5324083
  31.1978553  11.1671673  14.2014083  31.9538553  10.7351673  14.2594083
  31.2128553  11.6991673  14.8924083  31.3118553  11.1821673  14.3124083
  32.1378553   9.3881673  22.2064083  32.5688553   9.2591673  21.4594083
  31.9328553  10.2361673  22.1804083  32.1708553   9.4941673  22.0924083
  38.4838553   2.9521673  15.8564083  38.4818553   2.8351673  14.9914083
  38.3028553   3.8001673  15.9484083  38.4568553   3.0601673  15.7424083
  47.5378553  15.3791673  27.3534083  46.8668553  15.8931673  27.5714083
  47.6008553  15.4791673  26.4894083  47.4478553  15.4701673  27.2584083
  36.2218553  12.9041673  20.4884083  36.3478553  13.7471673  20.6754083
  36.8898553  12.5051673  20.8844083  36.3398553  12.9701673  20.5744083
  34.3518553   6.3871673  30.3504083  33.8158553   5.8811673  30.8184083
  34.3718553   5.9971673  29.5704083  34.2748553   6.2541673  30.3044083
  34.8368553   5.7841673  15.4904083  34.7088553   5.3361673  16.2284083
  34.2548553   5.4421673  14.9384083  34.7318553   5.6671673  15.5184083
  35.0038553   7.6141673  22.0894083  34.2228553   7.5551673  21.7064083
  35.0758553   6.8621673  22.5264083  34.8988553   7.4951673  22.0974083
  35.4338553   7.3511673  25.5574083  35.4588553   6.6761673  25.0064083
  34.7878553   7.8471673  25.2454083  35.3428553   7.3241673  25.4304083
  45.3288553   5.0641673  23.9534083  44.6668553   5.3921673  24.4164083
  45.5158553   5.6981673  23.3844083  45.2588553   5.2061673  23.9374083
  39.5338553  16.1281673  24.9494083  39.2568553  15.4871673  24.4264083
  39.3258553  16.8541673  24.5114083  39.4628553  16.1411673  24.8074083
  43.5218553   3.0331673  17.4644083  44.0118553   3.7501673  17.3874083
  42.7318553   3.2941673  17.2014083  43.4778553   3.1771673  17.4144083
  33.2328553   8.7061673  31.1164083  33.1958553   9.2071673  30.4024083
  33.5638553   7.9541673  30.8214083  33.2758553   8.6681673  30.9674083
  44.8358553  10.9111673  29.3744083  45.3198553  11.6291673  29.4724083
  45.2298553  10.4841673  28.7234083  44.9658553  10.9541673  29.2924083
  39.1318553  13.7561673  30.5514083  39.4858553  13.5781673  31.3284083
  38.6958553  13.0271673  30.3524083  39.1198553  13.6221673  30.6374083
  40.1038553   4.5031673  23.1894083  40.5838553   5.2021673  23.3974083
  40.4768553   3.8561673  23.6404083  40.2298553   4.5111673  23.2864083
  42.2928553   7.6721673  15.4634083  42.2848553   8.3941673  14.9734083
  41.6538553   7.8071673  16.0404083  42.1978553   7.7991673  15.4764083
  47.2648553  11.5421673  19.4444083  47.6208553  11.1921673  20.1594083
  47.2568553  10.8811673  18.8744083  47.3168553  11.3921673  19.4654083
  43.3098553  14.6081673  23.2884083  42.7068553  14.3121673  22.7314083
  43.8548553  15.0601673  22.7794083  43.3008553  14.6311673  23.1304083
  43.3228553  11.4591673  22.6884083  42.5258553  11.6831673  22.9624083
  43.5808553  10.8651673  23.2734083  43.2428553  11.4041673  22.8154083
  37.2148553  16.2711673  17.1364083  37.0678553  15.4951673  17.5074083
  37.9038553  16.1241673  16.6214083  37.2948553  16.1341673  17.1154083
  39.5068553  15.7871673  15.5384083  40.1288553  15.9501673  16.1284083
  39.5428553  16.4781673  15.0064083  39.6038553  15.9131673  15.5474083
  46.5828553   9.4571673  27.5344083  46.6378553   9.5821673  26.6724083
  47.3358553   9.7771673  27.8364083  46.7018553   9.5221673  27.4514083
  42.7738553  14.8061673  31.8114083  42.9378553  15.0891673  32.6204083
  43.0368553  15.4671673  31.3064083  42.8368553  14.9461673  31.8564083
  34.0078553   8.3211673  16.3674083  34.3318553   7.5421673  16.1454083
  34.6538553   8.6891673  16.8224083  34.1508553   8.2601673  16.4014083
  42.3138553   9.2631673  27.1344083  42.1588553   9.8731673  27.7384083
  42.8478553   8.7051673  27.5404083  42.3698553   9.2711673  27.2834083
  40.6978553   7.6631673  17.7924083  40.7568553   8.3131673  18.3714083
  40.5088553   6.9671673  18.2834083  40.6788553   7.6561673  17.9504083
  45.9238553  11.9921673  23.6614083  45.4448553  12.2901673  22.9954083
  45.5678553  11.2161673  23.8394083  45.8008553  11.9211673  23.5894083
  35.1938553   2.1801673  14.3044083  34.6828553   2.2331673  13.5984083
  35.9778553   2.4201673  14.0084083  35.2338553   2.2231673  14.1564083
  39.9208553   9.7101673  22.2234083  39.0738553   9.5161673  22.3044083
  40.2448553   9.5451673  23.0164083  39.8428553   9.6571673  22.3524083
  36.6728553  16.4401673  13.1094083  37.1118553  15.7431673  13.3974083
  36.8798553  17.0641673  13.6824083  36.7688553  16.4291673  13.2364083
  33.7688553   9.4031673  24.5394083  34.4908553   9.8911673  24.5024083
  33.4988553   9.3731673  23.7104083  33.8358553   9.4711673  24.4114083
  36.9988553   4.5741673  21.2744083  37.8448553   4.3841673  21.3724083
  36.6288553   3.7971673  21.1364083  37.0688553   4.4311673  21.2684083
  49.6158553  16.1581673  15.6014083  50.3098553  15.6911673  15.3534083
  49.0768553  15.5601673  15.9384083  49.6388553  16.0001673  15.6144083
  31.8198553   5.9121673  17.9294083  32.3088553   5.6201673  18.5904083
  31.9488553   5.3191673  17.3024083  31.9108553   5.7811673  17.9344083
  46.8548553   8.9341673  24.7804083  46.8478553   8.1581673  25.1784083
  46.0138553   9.1681673  24.7734083  46.7298553   8.8541673  24.8384083
  36.3448553   7.3461673  13.4154083  35.7348553   6.9411673  13.8894083
  35.9588553   7.4641673  12.6424083  36.1978553   7.3031673  13.3714083
  33.1638553  10.4551673  28.8174083  32.7428553   9.9371673  28.2564083
  32.8118553  11.2411673  28.6744083  33.0498553  10.4951673  28.7134083
  48.1108553   9.0051673  22.2174083  47.8248553   9.4061673  22.9374083
  48.9708553   8.9431673  22.3444083  48.1958553   9.0551673  22.3424083
  37.7998553   5.8071673  16.1254083  38.0718553   6.6331673  16.1924083
  36.9368553   5.8821673  16.0294083  37.7128553   5.9401673  16.1204083
  45.7728553   2.9291673  30.7574083  45.2478553   3.3881673  31.2814083
  45.4118553   2.1341673  30.7514083  45.6418553   2.8791673  30.8334083
  31.2798553   1.7771673  22.6614083  31.3238553   2.1211673  21.8604083
  32.0348553   2.0141673  23.0284083  31.3978553   1.8631673  22.5974083
  49.2418553  14.6381673  22.7464083  49.5318553  14.8951673  21.9654083
  49.9368553  14.7341673  23.2654083  49.3878553  14.6901673  22.7074083
  44.2648553   6.4981673  30.8334083  44.3378553   6.6021673  31.6964083
  43.6308553   7.0561673  30.6124083  44.1818553   6.5961673  30.9284083
  46.5328553   6.8171673  29.1984083  46.8518553   7.6031673  29.4014083
  46.1628553   6.5471673  29.9414083  46.5258553   6.8931673  29.3384083
  45.8468553  13.2411673  14.7284083  46.1808553  12.4351673  14.7634083
  45.0918553  13.1691673  15.1584083  45.7848553  13.1111673  14.7974083
  46.3288553   5.0751673  20.3874083  45.5838553   4.7521673  20.7054083
  46.3308553   5.9011673  20.6674083  46.2188553   5.1491673  20.4754083
  49.2308553   7.3591673  31.9334083  49.1788553   7.0181673  31.1324083
  49.9678553   7.8261673  31.9114083  49.3318553   7.3781673  31.8114083
  48.7688553  11.0351673  28.1394083  49.3968553  10.4861673  27.8834083
  48.7078553  11.6001673  27.4774083  48.8528553  11.0381673  28.0034083
  43.2208553  11.1161673  14.1314083  43.9048553  10.6021673  13.9624083
  42.8038553  11.1621673  13.3664083  43.2598553  11.0471673  13.9934083
  37.9028553  12.2661673  25.4354083  37.6048553  12.8581673  26.0024083
  37.9578553  12.7081673  24.6864083  37.8668553  12.4191673  25.4084083
  35.8818553  11.2161673  28.8334083  35.0758553  10.9261673  29.0004083
  35.7928553  12.0841673  28.8394083  35.7498553  11.3011673  28.8584083
  40.4188553   8.6891673  24.9264083  40.8948553   9.0631673  25.5544083
  39.5958553   8.8231673  25.1854083  40.3678553   8.7641673  25.0574083
  37.1288553   4.2921673  27.6674083  37.2898553   3.5481673  28.0944083
  37.0838553   4.0431673  26.8324083  37.1458553   4.1451673  27.6074083
  39.6828553  16.0821673  20.1544083  40.2288553  16.7611673  20.2084083
  39.3328553  16.1641673  19.3594083  39.7118553  16.1951673  20.0444083
  37.8658553  14.3101673  23.5434083  37.2418553  14.8921673  23.3614083
  38.1138553  14.0241673  22.7574083  37.8098553  14.3541673  23.4004083
  42.1748553  10.9441673  30.5324083  42.9318553  11.2301673  30.2064083
  41.6278553  10.9961673  29.8544083  42.2058553  10.9941673  30.3834083
  46.0838553  13.4941673  29.0364083  46.4298553  13.7641673  29.7904083
  46.3778553  14.0761673  28.4564083  46.1788553  13.6201673  29.0624083
  47.9468553   5.6401673  14.3754083  48.3248553   6.3171673  13.9754083
  47.1048553   5.8641673  14.4064083  47.8778553   5.7731673  14.3204083
  39.4598553   9.0861673  13.4584083  38.6548553   8.9091673  13.1734083
  39.4268553   9.9371673  13.6504083  39.3358553   9.1851673  13.4454083
  35.3898553   5.1531673  23.6084083  35.8298553   5.0501673  22.8624083
  35.9348553   4.8401673  24.2134083  35.5348553   5.0921673  23.5874083
  43.4058553   4.2551673  29.2004083  42.7578553   4.7251673  29.5484083
  43.9708553   4.1661673  29.8594083  43.3938553   4.3111673  29.3494083
  43.0938553   5.7921673  25.4984083  43.3958553   6.2121673  26.2014083
  43.1298553   4.9521673  25.7304083  43.1438553   5.7301673  25.6364083
  40.5188553  15.9591673  29.4234083  40.9968553  15.3591673  29.0074083
  40.1678553  15.5161673  30.0884083  40.5378553  15.8051673  29.4604083
  45.6418553   5.2391673  17.7504083  45.8488553   5.0381673  18.5744083
  46.3978553   5.5071673  17.4084083  45.7838553   5.2491673  17.8214083
  47.1068553   9.2661673  17.6044083  47.5828553   8.5371673  17.5564083
  46.2858553   8.9801673  17.5284083  47.0558553   9.1161673  17.5854083
  40.5778553  11.1781673  28.4434083  39.7828553  11.1141673  28.7944083
  40.6488553  12.0251673  28.2484083  40.4708553  11.2931673  28.4664083
  36.4078553  17.3851673  23.7604083  36.4188553  17.4441673  24.6304083
  35.9828553  16.6381673  23.6104083  36.3468553  17.2831673  23.8664083
  34.5658553   3.2801673  16.9154083  34.6918553   2.9511673  16.1174083
  33.7538553   3.0311673  17.1144083  34.4648553   3.1951673  16.8274083
  43.3228553  10.4331673  19.9594083  43.3988553  10.7741673  20.7584083
  43.4918553   9.5861673  20.0804083  43.3588553  10.3581673  20.0954083
  40.8448553   9.7071673  19.5244083  40.5468553   9.3921673  20.2814083
  41.5398553  10.1801673  19.7594083  40.9038553   9.7301673  19.6714083
  41.0668553  13.8251673  27.5514083  41.7538553  13.7111673  28.0764083
  41.2008553  14.6161673  27.2074083  41.1878553  13.9251673  27.5784083
  49.2428553   6.4341673  29.3624083  48.3878553   6.3121673  29.4884083
  49.3958553   6.0391673  28.5994083  49.1388553   6.3571673  29.2684083
  43.7558553   7.0991673  27.9384083  43.5008553   6.3801673  28.3604083
  44.5768553   7.2151673  28.2084083  43.8398553   7.0101673  28.0404083
  33.1718553  16.8831673  29.2024083  32.5178553  16.3141673  29.3004083
  32.7968553  17.6561673  29.3534083  33.0198553  16.9131673  29.2394083
  41.6898553   8.2891673  31.1254083  42.0128553   8.9751673  30.6934083
  40.9858553   8.6121673  31.5274083  41.6328553   8.4381673  31.1204083
  44.7738553  16.6631673  22.0544083  44.3228553  17.3061673  22.4334083
  45.4818553  16.5841673  22.5594083  44.8118553  16.7461673  22.1854083
  41.4748553  11.7531673  24.9844083  40.7808553  12.1551673  25.3274083
  42.1518553  12.1861673  25.3234083  41.4718553  11.8761673  25.0854083
  46.8518553  14.3461673  31.5644083  47.6278553  13.9561673  31.6474083
  46.3828553  14.0101673  32.2194083  46.8968553  14.2391673  31.6734083
  34.5428553   5.2911673  27.3314083  34.9178553   5.9101673  26.8444083
  35.2168553   4.8171673  27.6164083  34.6978553   5.3131673  27.3014083
  32.3178553   3.7391673  26.6064083  32.3948553   3.5701673  25.7534083
  33.0638553   4.1451673  26.8034083  32.4388553   3.7741673  26.5094083
  47.8768553   6.3791673  17.0464083  47.9798553   6.3211673  16.1824083
  48.6178553   6.0471673  17.3644083  48.0018553   6.3221673  16.9654083
  41.7968553  13.3441673  18.1534083  41.5918553  14.1771673  17.9944083
  41.0218553  12.9621673  18.2754083  41.6518553  13.4111673  18.1484083
  46.9788553   6.5251673  26.4024083  46.9768553   5.6621673  26.5264083
  47.0458553   6.8491673  27.2094083  46.9888553   6.4451673  26.5394083
  31.7148553   8.9651673  26.8304083  32.0348553   9.1841673  26.0494083
  31.6148553   8.1001673  26.7754083  31.7468553   8.8701673  26.7074083
  33.1708553   4.9011673  13.4484083  32.4988553   4.9151673  14.0044083
  33.2658553   4.0531673  13.2644083  33.0858553   4.7781673  13.5034083
  37.1588553  13.6061673  14.5624083  37.5998553  13.6861673  15.3104083
  36.3538553  13.3901673  14.8204083  37.1048553  13.5861673  14.7114083
  45.4498553   2.0311673  23.8384083  46.3048553   2.1301673  23.9834083
  45.0808553   2.5841673  24.4034083  45.5218553   2.1281673  23.9434083
  36.4778553   8.2571673  28.2154083  36.0818553   9.0311673  28.2904083
  36.0718553   7.8841673  27.5394083  36.3598553   8.3161673  28.1264083
  45.7538553   7.3111673  22.3294083  46.4198553   7.8521673  22.4894083
  45.4088553   7.6221673  21.5904083  45.8008553   7.4371673  22.2444083
  46.0668553  15.3771673  18.1364083  45.8928553  14.7231673  18.6864083
  46.7798553  15.1061673  17.7134083  46.1468553  15.2401673  18.1554083
  34.4878553  12.6761673  15.1634083  34.2438553  12.3691673  15.9434083
  34.4548553  11.9731673  14.6474083  34.4468553  12.5271673  15.2024083
  37.3068553  10.9211673  13.9064083  36.4888553  10.6531673  14.0464083
  37.2788553  11.7731673  14.0914083  37.1818553  11.0081673  13.9544083
  43.7418553  12.8301673  25.8274083  43.9478553  13.1311673  26.6194083
  43.6808553  13.5521673  25.3424083  43.7628553  12.9811673  25.8724083
  43.2758553  17.0441673  30.0734083  42.5228553  17.0261673  29.6324083
  43.4438553  17.8961673  30.1574083  43.1898553  17.1671673  30.0204083
  38.5128553   6.3111673  29.2434083  38.1908553   5.7351673  28.6734083
  38.1538553   7.0661673  28.9974083  38.4128553   6.3371673  29.1234083
  48.5538553  11.4691673  25.2854083  48.5218553  10.6071673  25.1504083
  47.8608553  11.7711673  24.8514083  48.4468553  11.3861673  25.2014083
  36.9478553  16.6671673  29.4914083  36.9888553  16.7931673  30.3544083
  37.5988553  16.1071673  29.3354083  37.0498553  16.6031673  29.5964083
  46.6588553  14.7291673  24.0824083  47.1858553  14.6461673  23.3914083
  46.2678553  13.9511673  24.1364083  46.6788553  14.6021673  23.9884083
  34.5408553  15.0501673  30.8514083  35.1358553  15.4811673  31.3234083
  34.1768553  15.6741673  30.3624083  34.5748553  15.2061673  30.8484083
  42.5318553   5.9811673  20.7834083  43.0828553   5.3741673  21.0834083
  42.1068553   6.2441673  21.4984083  42.5508553   5.9301673  20.9324083
  32.7798553   4.6311673  20.2694083  32.4118553   4.9331673  21.0004083
  33.3138553   4.0021673  20.5534083  32.8038553   4.5831673  20.4194083
  32.4678553  13.0391673  27.7804083  31.8938553  13.4551673  28.2894083
  33.2008553  13.5041673  27.8754083  32.4918553  13.1691673  27.8694083
  44.5018553   7.8121673  17.3454083  44.5698553   6.9621673  17.5264083
  43.6788553   7.8981673  17.0674083  44.3898553   7.6991673  17.3314083
  34.2538553  16.3061673  16.5554083  34.1088553  16.4621673  15.7094083
  35.1198553  16.3851673  16.6334083  34.3608553  16.3411673  16.4424083
  38.4208553   8.7031673  16.2834083  38.5208553   8.8421673  15.4284083
  39.2388553   8.6431673  16.5794083  38.5558553   8.7141673  16.2004083
  47.5808553  16.7671673  13.7634083  48.2178553  16.6331673  14.3444083
  47.2398553  15.9731673  13.6464083  47.6248553  16.6301673  13.8314083
  47.7758553   9.1851673  30.4964083  48.4098553   9.0151673  31.0704083
  48.1928553   9.5881673  29.8444083  47.9308553   9.2201673  30.4854083
  43.6558553  13.0321673  16.0854083  43.4048553  12.9041673  16.9114083
  43.3388553  12.3371673  15.6644083  43.5718553  12.9111673  16.1454083
  48.4008553   3.7491673  31.2344083  48.2048553   4.3931673  31.7894083
  47.6788553   3.2591673  31.2264083  48.2658553   3.7721673  31.3154083
  48.2998553   4.6901673  24.2054083  47.4668553   4.9401673  24.1334083
  48.2438553   3.8501673  24.4344083  48.1688553   4.6031673  24.2284083
  45.1868553   9.2961673  31.8514083  46.0578553   9.2601673  31.8154083
  44.9678553   9.7161673  31.1194083  45.2838553   9.3521673  31.7384083
  34.9408553  15.1211673  23.0324083  34.8618553  14.3111673  22.7164083
  34.4968553  15.6081673  22.4604083  34.8638553  15.0731673  22.9014083
  40.5418553  11.2401673  15.5154083  41.2588553  10.8931673  15.1594083
  40.5078553  12.0401673  15.1674083  40.6428553  11.3071673  15.4114083
  32.5128553  17.3651673  26.6134083  33.0058553  17.3091673  27.3314083
  32.7008553  16.6321673  26.1784083  32.6138553  17.2481673  26.6554083
  41.7598553   6.7971673   4.4251673  41.2358553   7.3931673   4.7881673
  42.1568553   6.4291673   5.1091673  41.7408553   6.8311673   4.5801673
  31.5688553  13.6721673   6.1361673  31.6978553  13.3921673   6.9521673
  30.9588553  13.1311673   5.8271673  31.4978553  13.5511673   6.2111673
  38.1428553  11.1971673  11.2031673  37.9068553  11.1941673  12.0431673
  37.3948553  11.0491673  10.7791673  37.9968553  11.1741673  11.2641673
  37.5228553   3.8031673   5.6851673  38.2008553   3.8211673   5.1361673
  37.4778553   2.9671673   5.9301673  37.6158553   3.6821673   5.6401673
  38.1248553  14.3891673   8.4661673  38.2628553  15.1491673   8.0591673
  38.9158553  14.0241673   8.4931673  38.2618553  14.4481673   8.4101673
  39.2198553  12.2741673   2.9711673  39.5678553  11.4751673   3.0011673
  39.8848553  12.7781673   2.7161673  39.3698553  12.2301673   2.9381673
  41.2448553   5.8541673  10.5211673  40.3968553   5.7551673  10.3431673
  41.2738553   6.5991673  10.9751673  41.1238553   5.9501673  10.5621673
  31.4708553   5.9541673   3.3511673  31.2148553   6.7851673   3.2761673
  30.8068553   5.5711673   3.7681673  31.3348553   6.0201673   3.4021673
  37.8058553   2.9041673  13.1401673  37.9228553   2.4501673  12.4041673
  38.0938553   3.7021673  12.9371673  37.8658553   2.9551673  13.0011673
  43.9708553  16.1981673   6.5481673  44.7148553  16.6541673   6.5381673
  43.8498553  15.9841673   5.7111673  44.0628553  16.2341673   6.4231673
  33.5388553   2.5011673  12.1241673  32.7608553   2.1111673  12.0521673
  34.0298553   2.0891673  11.5331673  33.4958553   2.3821673  12.0261673
  33.7438553  12.8211673   2.6821673  34.1668553  12.4651673   2.0081673
  34.0678553  12.3991673   3.3741673  33.8538553  12.7061673   2.6851673
  36.9748553  15.6731673   1.9781673  37.8188553  15.7771673   1.7831673
  36.6778553  16.4911673   2.0461673  37.0558553  15.8091673   1.9591673
  35.9728553  16.8921673   7.7181673  36.2648553  16.8251673   8.5381673
  35.3468553  16.2871673   7.6731673  35.9238553  16.7931673   7.8331673
  30.8868553   3.0491673   9.7101673  30.8828553   3.6361673  10.3561673
  31.4808553   3.3611673   9.1531673  30.9738553   3.1821673   9.7231673
  43.2248553  13.3831673  10.2521673  43.1908553  13.7651673  11.0361673
  44.0788553  13.3411673  10.0811673  43.3458553  13.4331673  10.3431673
  33.9658553  15.0541673   6.8401673  33.2678553  14.5461673   6.9661673
  34.2258553  14.8491673   6.0321673  33.9008553  14.9491673   6.7391673
  41.6768553  16.5471673   7.7501673  42.4448553  16.4671673   7.3441673
  41.0938553  16.4261673   7.1121673  41.7038553  16.5171673   7.5961673
  35.3268553  13.9051673   9.4071673  36.1678553  13.9681673   9.1851673
  35.2898553  14.3021673  10.1831673  35.4458553  13.9731673   9.4891673
  37.2898553   9.4161673   4.1561673  37.4618553   9.2061673   4.9851673
  36.6348553   8.8821673   3.9401673  37.2188553   9.3061673   4.2471673
  43.5178553   3.3301673   7.6711673  43.4228553   3.6491673   8.4771673
  42.9248553   2.6911673   7.6331673  43.4158553   3.2821673   7.7851673
  38.0398553   9.3541673   6.7461673  38.0928553  10.2011673   6.9481673
  37.7548553   8.9841673   7.4831673  38.0058553   9.4241673   6.8841673
  44.2168553  10.0491673   5.8761673  43.7028553   9.6371673   6.4471673
  44.0908553  10.8931673   6.0571673  44.1228553  10.1131673   5.9871673
  30.8608553  13.7251673  12.9571673  31.6168553  14.0741673  13.2151673
  31.0378553  12.8721673  12.9001673  30.9988553  13.6501673  12.9871673
  47.2378553   3.5101673   8.8151673  48.0098553   3.2851673   9.1521673
  46.7628553   3.7271673   9.5151673  47.2818553   3.5091673   8.9681673
  33.3728553  16.9451673   2.5711673  32.6998553  16.4471673   2.3261673
  33.7758553  17.1301673   1.8201673  33.3328553  16.8991673   2.4241673
  32.9228553   3.8951673   4.8671673  33.7658553   4.1151673   4.8241673
  32.5338553   4.4681673   4.3361673  32.9898553   4.0121673   4.7821673
  49.7038553  14.9971673  10.2571673  49.0218553  15.3071673   9.8101673
  49.3348553  14.5391673  10.9021673  49.5478553  14.9751673  10.2861673
  31.1298553  11.8701673   2.8891673  30.4628553  12.3581673   3.1651673
  31.8098553  12.4151673   2.9181673  31.1318553  12.0221673   2.9341673
  38.7768553   5.5801673  12.9851673  38.2928553   6.1571673  13.4271673
  38.7488553   5.8751673  12.1641673  38.7008553   5.7091673  12.9291673
  49.8748553   6.2641673   7.5971673  50.0898553   5.4641673   7.3211673
  49.0248553   6.3241673   7.4081673  49.7808553   6.1551673   7.5281673
  35.5718553  11.7181673   4.6561673  36.0388553  12.0071673   5.3341673
  36.1438553  11.2401673   4.2021673  35.7258553  11.6901673   4.6891673
  44.0078553   3.7321673   2.3931673  44.3518553   3.8841673   3.1801673
  43.5548553   2.9941673   2.5061673  43.9918553   3.6451673   2.5261673
  32.1378553   9.3881673   3.2001673  32.5688553   9.2591673   2.4531673
  31.9328553  10.2361673   3.1741673  32.1708553   9.4941673   3.0861673
  47.5378553  15.3791673   8.3471673  46.8668553  15.8931673   8.5651673
  47.6008553  15.4791673   7.4831673  47.4478553  15.4701673   8.2521673
  34.3518553   6.3871673  11.3441673  33.8158553   5.8811673  11.8121673
  34.3718553   5.9971673  10.5641673  34.2748553   6.2541673  11.2981673
  35.0038553   7.6141673   3.0831673  34.2228553   7.5551673   2.7001673
  35.0758553   6.8621673   3.5201673  34.8988553   7.4951673   3.0911673
  35.4338553   7.3511673   6.5511673  35.4588553   6.6761673   6.0001673
  34.7878553   7.8471673   6.2391673  35.3428553   7.3241673   6.4241673
  45.3288553   5.0641673   4.9471673  44.6668553   5.3921673   5.4101673
  45.5158553   5.6981673   4.3781673  45.2588553   5.2061673   4.9311673
  39.5338553  16.1281673   5.9431673  39.2568553  15.4871673   5.4201673
  39.3258553  16.8541673   5.5051673  39.4628553  16.1411673   5.8011673
  33.2328553   8.7061673  12.1101673  33.1958553   9.2071673  11.3961673
  33.5638553   7.9541673  11.8151673  33.2758553   8.6681673  11.9611673
  44.8358553  10.9111673  10.3681673  45.3198553  11.6291673  10.4661673
  45.2298553  10.4841673   9.7171673  44.9658553  10.9541673  10.2861673
  39.1318553  13.7561673  11.5451673  39.4858553  13.5781673  12.3221673
  38.6958553  13.0271673  11.3461673  39.1198553  13.6221673  11.6311673
  40.1038553   4.5031673   4.1831673  40.5838553   5.2021673   4.3911673
  40.4768553   3.8561673   4.6341673  40.2298553   4.5111673   4.2801673
  43.3098553  14.6081673   4.2821673  42.7068553  14.3121673   3.7251673
  43.8548553  15.0601673   3.7731673  43.3008553  14.6311673   4.1241673
  43.3228553  11.4591673   3.6821673  42.5258553  11.6831673   3.9561673
  43.5808553  10.8651673   4.2671673  43.2428553  11.4041673   3.8091673
  46.5828553   9.4571673   8.5281673  46.6378553   9.5821673   7.6661673
  47.3358553   9.7771673   8.8301673  46.7018553   9.5221673   8.4451673
  42.7738553  14.8061673  12.8051673  42.9378553  15.0891673  13.6141673
  43.0368553  15.4671673  12.3001673  42.8368553  14.9461673  12.8501673
  42.3138553   9.2631673   8.1281673  42.1588553   9.8731673   8.7321673
  42.8478553   8.7051673   8.5341673  42.3698553   9.2711673   8.2771673
  45.9238553  11.9921673   4.6551673  45.4448553  12.2901673   3.9891673
  45.5678553  11.2161673   4.8331673  45.8008553  11.9211673   4.5831673
  39.9208553   9.7101673   3.2171673  39.0738553   9.5161673   3.2981673
  40.2448553   9.5451673   4.0101673  39.8428553   9.6571673   3.3461673
  33.7688553   9.4031673   5.5331673  34.4908553   9.8911673   5.4961673
  33.4988553   9.3731673   4.7041673  33.8358553   9.4711673   5.4051673
  36.9988553   4.5741673   2.2681673  37.8448553   4.3841673   2.3661673
  36.6288553   3.7971673   2.1301673  37.0688553   4.4311673   2.2621673
  46.8548553   8.9341673   5.7741673  46.8478553   8.1581673   6.1721673
  46.0138553   9.1681673   5.7671673  46.7298553   8.8541673   5.8321673
  33.1638553  10.4551673   9.8111673  32.7428553   9.9371673   9.2501673
  32.8118553  11.2411673   9.6681673  33.0498553  10.4951673   9.7071673
  48.1108553   9.0051673   3.2111673  47.8248553   9.4061673   3.9311673
  48.9708553   8.9431673   3.3381673  48.1958553   9.0551673   3.3361673
  45.7728553   2.9291673  11.7511673  45.2478553   3.3881673  12.2751673
  45.4118553   2.1341673  11.7451673  45.6418553   2.8791673  11.8271673
  31.2798553   1.7771673   3.6551673  31.3238553   2.1211673   2.8541673
  32.0348553   2.0141673   4.0221673  31.3978553   1.8631673   3.5911673
  49.2418553  14.6381673   3.7401673  49.5318553  14.8951673   2.9591673
  49.9368553  14.7341673   4.2591673  49.3878553  14.6901673   3.7011673
  44.2648553   6.4981673  11.8271673  44.3378553   6.6021673  12.6901673
  43.6308553   7.0561673  11.6061673  44.1818553   6.5961673  11.9221673
  46.5328553   6.8171673  10.1921673  46.8518553   7.6031673  10.3951673
  46.1628553   6.5471673  10.9351673  46.5258553   6.8931673  10.3321673
  49.2308553   7.3591673  12.9271673  49.1788553   7.0181673  12.1261673
  49.9678553   7.8261673  12.9051673  49.3318553   7.3781673  12.8051673
  48.7688553  11.0351673   9.1331673  49.3968553  10.4861673   8.8771673
  48.7078553  11.6001673   8.4711673  48.8528553  11.0381673   8.9971673
  37.9028553  12.2661673   6.4291673  37.6048553  12.8581673   6.9961673
  37.9578553  12.7081673   5.6801673  37.8668553  12.4191673   6.4021673
  35.8818553  11.2161673   9.8271673  35.0758553  10.9261673   9.9941673
  35.7928553  12.0841673   9.8331673  35.7498553  11.3011673   9.8521673
  40.4188553   8.6891673   5.9201673  40.8948553   9.0631673   6.5481673
  39.5958553   8.8231673   6.1791673  40.3678553   8.7641673   6.0511673
  37.1288553   4.2921673   8.6611673  37.2898553   3.5481673   9.0881673
  37.0838553   4.0431673   7.8261673  37.1458553   4.1451673   8.6011673
  37.8658553  14.3101673   4.5371673  37.2418553  14.8921673   4.3551673
  38.1138553  14.0241673   3.7511673  37.8098553  14.3541673   4.3941673
  42.1748553  10.9441673  11.5261673  42.9318553  11.2301673  11.2001673
  41.6278553  10.9961673  10.8481673  42.2058553  10.9941673  11.3771673
  46.0838553  13.4941673  10.0301673  46.4298553  13.7641673  10.7841673
  46.3778553  14.0761673   9.4501673  46.1788553  13.6201673  10.0561673
  35.3898553   5.1531673   4.6021673  35.8298553   5.0501673   3.8561673
  35.9348553   4.8401673   5.2071673  35.5348553   5.0921673   4.5811673
  43.4058553   4.2551673  10.1941673  42.7578553   4.7251673  10.5421673
  43.9708553   4.1661673  10.8531673  43.3938553   4.3111673  10.3431673
  43.0938553   5.7921673   6.4921673  43.3958553   6.2121673   7.1951673
  43.1298553   4.9521673   6.7241673  43.1438553   5.7301673   6.6301673
  40.5188553  15.9591673  10.4171673  40.9968553  15.3591673  10.0011673
  40.1678553  15.5161673  11.0821673  40.5378553  15.8051673  10.4541673
  40.5778553  11.1781673   9.4371673  39.7828553  11.1141673   9.7881673
  40.6488553  12.0251673   9.2421673  40.4708553  11.2931673   9.4601673
  36.4078553  17.3851673   4.7541673  36.4188553  17.4441673   5.6241673
  35.9828553  16.6381673   4.6041673  36.3468553  17.2831673   4.8601673
  41.0668553  13.8251673   8.5451673  41.7538553  13.7111673   9.0701673
  41.2008553  14.6161673   8.2011673  41.1878553  13.9251673   8.5721673
  49.2428553   6.4341673  10.3561673  48.3878553   6.3121673  10.4821673
  49.3958553   6.0391673   9.5931673  49.1388553   6.3571673  10.2621673
  43.7558553   7.0991673   8.9321673  43.5008553   6.3801673   9.3541673
  44.5768553   7.2151673   9.2021673  43.8398553   7.0101673   9.0341673
  33.1718553  16.8831673  10.1961673  32.5178553  16.3141673  10.2941673
  32.7968553  17.6561673  10.3471673  33.0198553  16.9131673  10.2331673
  41.6898553   8.2891673  12.1191673  42.0128553   8.9751673  11.6871673
  40.9858553   8.6121673  12.5211673  41.6328553   8.4381673  12.1141673
  44.7738553  16.6631673   3.0481673  44.3228553  17.3061673   3.4271673
  45.4818553  16.5841673   3.5531673  44.8118553  16.7461673   3.1791673
  41.4748553  11.7531673   5.9781673  40.7808553  12.1551673   6.3211673
  42.1518553  12.1861673   6.3171673  41.4718553  11.8761673   6.0791673
  46.8518553  14.3461673  12.5581673  47.6278553  13.9561673  12.6411673
  46.3828553  14.0101673  13.2131673  46.8968553  14.2391673  12.6671673
  34.5428553   5.2911673   8.3251673  34.9178553   5.9101673   7.8381673
  35.2168553   4.8171673   8.6101673  34.6978553   5.3131673   8.2951673
  32.3178553   3.7391673   7.6001673  32.3948553   3.5701673   6.7471673
  33.0638553   4.1451673   7.7971673  32.4388553   3.7741673   7.5031673
  46.9788553   6.5251673   7.3961673  46.9768553   5.6621673   7.5201673
  47.0458553   6.8491673   8.2031673  46.9888553   6.4451673   7.5331673
  31.7148553   8.9651673   7.8241673  32.0348553   9.1841673   7.0431673
  31.6148553   8.1001673   7.7691673  31.7468553   8.8701673   7.7011673
  45.4498553   2.0311673   4.8321673  46.3048553   2.1301673   4.9771673
  45.0808553   2.5841673   5.3971673  45.5218553   2.1281673   4.9371673
  36.4778553   8.2571673   9.2091673  36.0818553   9.0311673   9.2841673
  36.0718553   7.8841673   8.5331673  36.3598553   8.3161673   9.1201673
  45.7538553   7.3111673   3.3231673  46.4198553   7.8521673   3.4831673
  45.4088553   7.6221673   2.5841673  45.8008553   7.4371673   3.2381673
  43.7418553  12.8301673   6.8211673  43.9478553  13.1311673   7.6131673
  43.6808553  13.5521673   6.3361673  43.7628553  12.9811673   6.8661673
  43.2758553  17.0441673  11.0671673  42.5228553  17.0261673  10.6261673
  43.4438553  17.8961673  11.1511673  43.1898553  17.1671673  11.0141673
  38.5128553   6.3111673  10.2371673  38.1908553   5.7351673   9.6671673
  38.1538553   7.0661673   9.9911673  38.4128553   6.3371673  10.1171673
  48.5538553  11.4691673   6.2791673  48.5218553  10.6071673   6.1441673
  47.8608553  11.7711673   5.8451673  48.4468553  11.3861673   6.1951673
  36.9478553  16.6671673  10.4851673  36.9888553  16.7931673  11.3481673
  37.5988553  16.1071673  10.3291673  37.0498553  16.6031673  10.5901673
  46.6588553  14.7291673   5.0761673  47.1858553  14.6461673   4.3851673
  46.2678553  13.9511673   5.1301673  46.6788553  14.6021673   4.9821673
  34.5408553  15.0501673  11.8451673  35.1358553  15.4811673  12.3171673
  34.1768553  15.6741673  11.3561673  34.5748553  15.2061673  11.8421673
  42.5318553   5.9811673   1.7771673  43.0828553   5.3741673   2.0771673
  42.1068553   6.2441673   2.4921673  42.5508553   5.9301673   1.9261673
  32.4678553  13.0391673   8.7741673  31.8938553  13.4551673   9.2831673
  33.2008553  13.5041673   8.8691673  32.4918553  13.1691673   8.8631673
  47.7758553   9.1851673  11.4901673  48.4098553   9.0151673  12.0641673
  48.1928553   9.5881673  10.8381673  47.9308553   9.2201673  11.4791673
  48.4008553   3.7491673  12.2281673  48.2048553   4.3931673  12.7831673
  47.6788553   3.2591673  12.2201673  48.2658553   3.7721673  12.3091673
  48.2998553   4.6901673   5.1991673  47.4668553   4.9401673   5.1271673
  48.2438553   3.8501673   5.4281673  48.1688553   4.6031673   5.2221673
  45.1868553   9.2961673  12.8451673  46.0578553   9.2601673  12.8091673
  44.9678553   9.7161673  12.1131673  45.2838553   9.3521673  12.7321673
  34.9408553  15.1211673   4.0261673  34.8618553  14.3111673   3.7101673
  34.4968553  15.6081673   3.4541673  34.8638553  15.0731673   3.8951673
  32.5128553  17.3651673   7.6071673  33.0058553  17.3091673   8.3251673
  32.7008553  16.6321673   7.1721673  32.6138553  17.2481673   7.6491673
  23.0860113  73.7935993  75.7791313  22.8410113  74.2815993  75.0991313
  23.9490113  73.7205993  75.6791313  23.1770113  73.8545993  75.6641313
  22.8950113  80.7095993  80.4501313  22.3710113  81.3055993  80.8131313
  23.2920113  80.3415993  81.1341313  22.8760113  80.7435993  80.6051313
  12.7640113  84.8495993  75.9061313  12.3230113  84.9675993  76.6491313
  12.4810113  84.0745993  75.6211313  12.6570113  84.7525993  75.9741313
  29.0390113  88.1505993  73.4211313  29.7400113  87.6315993  73.4171313
  28.4520113  87.7055993  72.9521313  29.0560113  88.0075993  73.3511313
  12.5070113  78.6415993  72.4131313  11.7290113  78.8035993  72.0531313
  12.5460113  77.7705993  72.4351313  12.3980113  78.5365993  72.3631313
  15.6460113  83.9045993  71.0851313  15.2540113  83.5335993  70.3991313
  15.5660113  83.3065993  71.7141313  15.5760113  83.7615993  71.0761313
  25.5660113  81.7765993  77.1261313  25.6460113  81.7805993  76.2571313
  24.9820113  81.1445993  77.2751313  25.4910113  81.6835993  77.0201313
  15.2730113  85.5455993  74.9851313  15.8810113  85.3755993  75.5881313
  14.5220113  85.4055993  75.4061313  15.2520113  85.4995993  75.1361313
  19.5550113  74.8805993  74.9341313  19.4850113  75.5575993  74.3881313
  20.2960113  74.4925993  74.6851313  19.6540113  74.9235993  74.8161313
  14.1640113  88.6365993  71.0621313  14.6310113  88.7205993  70.3301313
  14.6190113  88.0585993  71.5311313  14.3000113  88.5635993  71.0231313
  14.1500113  82.1055993  76.3631313  13.6880113  81.7135993  75.7361313
  14.8500113  81.5925993  76.4551313  14.1850113  81.9725993  76.2841313
  16.1510113  80.2055993  76.3861313  16.9680113  80.0185993  76.6291313
  15.6740113  79.5915993  76.7821313  16.2010113  80.0875993  76.4811313
  20.3550113  86.1865993  78.9961313  20.7030113  85.3875993  79.0261313
  21.0200113  86.6905993  78.7411313  20.5050113  86.1425993  78.9631313
  20.4120113  85.6355993  75.2071313  20.7430113  84.9915993  75.6931313
  20.6520113  85.4245993  74.3961313  20.4960113  85.5095993  75.1591313
  16.7480113  75.2995993  75.6521313  16.4520113  75.8005993  75.0021313
  17.6150113  75.3775993  75.5951313  16.8320113  75.3855993  75.5481313
  19.7270113  74.4415993  77.8751313  19.8000113  75.3015993  78.0041313
  19.6890113  74.3665993  77.0071313  19.7320113  74.5575993  77.7661313
  24.4000113  77.3675993  70.1741313  23.9500113  78.0485993  70.4811313
  24.5140113  76.8635993  70.8771313  24.3510113  77.3935993  70.3231313
  12.6060113  79.8665993  79.3761313  12.3500113  80.6975993  79.3011313
  11.9420113  79.4835993  79.7931313  12.4700113  79.9325993  79.4271313
  18.3560113  87.4205993  74.7561313  17.7770113  87.1455993  75.3481313
  18.9800113  86.8115993  74.7811313  18.3630113  87.2905993  74.8471313
  15.6350113  74.6835993  79.8671313  15.1140113  74.0555993  79.5591313
  16.2260113  74.2465993  80.3381313  15.6460113  74.5255993  79.8911313
  14.0610113  88.2465993  75.2071313  14.7170113  87.6715993  75.2221313
  14.4500113  88.9955993  74.9861313  14.2160113  88.2715993  75.1771313
  29.7940113  77.3405993  76.4691313  29.4480113  78.0185993  76.8951313
  29.1580113  76.7425993  76.4851313  29.6490113  77.3525993  76.5341313
  14.8790113  86.7335993  78.7071313  15.3020113  86.3775993  78.0331313
  15.2030113  86.3115993  79.3991313  14.9890113  86.6185993  78.7101313
  21.9170113  78.9825993  76.0901313  22.2040113  78.7505993  75.3001313
  22.6490113  79.0615993  76.5591313  22.0670113  78.9595993  76.0431313
  22.6390113  79.3215993  71.2111313  22.9200113  80.1095993  71.4601313
  21.8630113  79.4865993  70.8481313  22.5660113  79.4625993  71.1941313
  21.4980113  87.4925993  71.0271313  21.3170113  88.0375993  71.6841313
  22.2640113  87.7825993  70.7261313  21.5840113  87.6165993  71.0801313
  25.0050113  75.3885993  72.0811313  25.5450113  74.7065993  72.1571313
  25.0670113  75.7865993  72.8551313  25.0940113  75.3465993  72.2071313
  12.9590113  76.5565993  74.6501313  12.8450113  75.6925993  74.6811313
  12.4840113  76.8505993  75.3201313  12.8720113  76.4725993  74.7531313
  22.2630113  77.7645993  73.3951313  21.7550113  77.1025993  73.1411313
  22.3150113  78.2685993  72.6851313  22.1960113  77.7415993  73.2531313
  22.2630113  74.7055993  73.2861313  21.8080113  74.3035993  72.6601313
  23.0360113  74.8605993  72.9111313  22.3100113  74.6695993  73.1381313
  20.8610113  77.0725993  77.8081313  20.9350113  77.6405993  77.1501313
  20.9820113  77.5645993  78.5181313  20.8890113  77.2295993  77.8161313
  26.0860113  86.9075993  76.2201313  26.7870113  86.4255993  76.4091313
  25.4260113  86.3385993  76.2651313  26.0920113  86.7525993  76.2541313
  15.4690113  72.8955993  76.1561313  16.0050113  73.5835993  76.1461313
  15.4720113  72.6215993  75.3281313  15.5480113  72.9565993  76.0321313
  18.4250113  83.3285993  80.1811313  18.5970113  83.1185993  81.0101313
  17.7700113  82.7945993  79.9651313  18.3540113  83.2185993  80.2721313
  25.9090113  73.1865993  76.5321313  25.9580113  72.8685993  77.3431313
  26.2320113  72.5425993  76.0391313  25.9640113  73.0445993  76.5791313
  15.9170113  76.7055993  77.8101313  16.1890113  76.2755993  77.1021313
  15.7410113  76.0695993  78.3811313  15.9310113  76.5485993  77.7901313
  28.6050113  84.4005993  72.0281313  28.7240113  84.1135993  72.8431313
  29.4120113  84.4215993  71.6981313  28.7410113  84.3615993  72.1001313
  15.7410113  84.1325993  77.3591313  16.5920113  84.0525993  77.1861313
  15.3840113  83.4505993  76.9471313  15.8140113  84.0195993  77.2721313
  14.0580113  77.8075993  80.8921313  14.9010113  78.0275993  80.8491313
  13.6690113  78.3805993  80.3611313  14.1250113  77.9245993  80.8071313
  26.5000113  80.9375993  71.6131313  26.2800113  81.6685993  71.1911313
  26.0520113  80.9885993  72.3601313  26.4010113  81.0525993  71.6611313
  18.1090113  84.1395993  75.5941313  18.8220113  84.6345993  75.6841313
  18.3310113  83.5725993  74.9681313  18.2470113  84.1285993  75.5151313
  30.6870113  75.7985993  71.0661313  30.0250113  75.2305993  71.0891313
  30.4940113  76.3105993  70.3861313  30.5610113  75.7905993  70.9691313
  12.2650113  85.7825993  78.9141313  11.5980113  86.2705993  79.1901313
  12.9450113  86.3275993  78.9431313  12.2670113  85.9345993  78.9591313
  12.3310113  82.4665993  74.0171313  12.1460113  81.6275993  74.1691313
  12.9900113  82.4305993  73.4471313  12.4010113  82.3375993  73.9551313
  28.6890113  75.3565993  73.3451313  29.4350113  74.9495993  73.5441313
  28.9520113  76.0715993  72.9201313  28.8380113  75.4025993  73.3121313
  22.6320113  87.8425993  77.9211313  22.1090113  88.4765993  77.6281313
  22.9420113  87.4785993  77.1921313  22.6000113  87.8825993  77.7701313
  12.5030113  86.6305993  73.5921313  13.0550113  87.1995993  73.9561313
  12.2710113  86.1155993  74.2571313  12.5500113  86.6385993  73.7441313
  16.7070113  85.6305993  80.6811313  17.1740113  85.9195993  81.3591313
  17.2790113  85.1525993  80.2271313  16.8610113  85.6025993  80.7141313
  25.1430113  77.6445993  78.4181313  25.4870113  77.7965993  79.2051313
  24.6900113  76.9065993  78.5311313  25.1270113  77.5575993  78.5511313
  12.3330113  85.0795993  71.2201313  13.0890113  84.6475993  71.2781313
  12.3480113  85.6115993  71.9111313  12.4470113  85.0945993  71.3311313
  13.2730113  83.3005993  79.2251313  13.7040113  83.1715993  78.4781313
  13.0680113  84.1485993  79.1991313  13.3060113  83.4065993  79.1111313
  19.6190113  76.8645993  72.8751313  19.6170113  76.7475993  72.0101313
  19.4380113  77.7125993  72.9671313  19.5920113  76.9725993  72.7611313
  17.3570113  86.8165993  77.5071313  17.4830113  87.6595993  77.6941313
  18.0250113  86.4175993  77.9031313  17.4750113  86.8825993  77.5931313
  15.9720113  79.6965993  72.5091313  15.8440113  79.2485993  73.2471313
  15.3900113  79.3545993  71.9571313  15.8670113  79.5795993  72.5371313
  16.1390113  81.5265993  79.1081313  15.3580113  81.4675993  78.7251313
  16.2110113  80.7745993  79.5451313  16.0340113  81.4075993  79.1161313
  26.4640113  78.9765993  80.9721313  25.8020113  79.3045993  81.4351313
  26.6510113  79.6105993  80.4031313  26.3940113  79.1185993  80.9561313
  24.6570113  76.9455993  74.4831313  25.1470113  77.6625993  74.4061313
  23.8670113  77.2065993  74.2201313  24.6130113  77.0895993  74.4331313
  21.2390113  78.4155993  80.2081313  21.7190113  79.1145993  80.4161313
  21.6120113  77.7685993  80.6591313  21.3650113  78.4235993  80.3051313
  23.4280113  81.5845993  72.4821313  23.4200113  82.3065993  71.9921313
  22.7890113  81.7195993  73.0591313  23.3330113  81.7115993  72.4951313
  28.4000113  85.4545993  76.4631313  28.7560113  85.1045993  77.1781313
  28.3920113  84.7935993  75.8931313  28.4520113  85.3045993  76.4841313
  24.4450113  88.5205993  80.3071313  23.8420113  88.2245993  79.7501313
  24.9900113  88.9725993  79.7981313  24.4360113  88.5435993  80.1491313
  24.4580113  85.3715993  79.7071313  23.6610113  85.5955993  79.9811313
  24.7160113  84.7775993  80.2921313  24.3780113  85.3165993  79.8341313
  18.0210113  73.9265993  72.1431313  18.1180113  73.8195993  73.0041313
  17.3130113  74.4325993  72.0781313  17.9310113  73.9855993  72.2611313
  15.1430113  82.2335993  73.3861313  15.4670113  81.4545993  73.1641313
  15.7890113  82.6015993  73.8411313  15.2860113  82.1725993  73.4201313
  12.1400113  73.8945993  74.3541313  12.2690113  73.1865993  73.8621313
  11.7730113  73.5765993  75.0791313  12.1050113  73.7425993  74.3891313
  21.8330113  81.5755993  74.8111313  21.8920113  82.2255993  75.3901313
  21.6440113  80.8795993  75.3021313  21.8140113  81.5685993  74.9691313
  27.0590113  85.9045993  80.6801313  26.5800113  86.2025993  80.0141313
  26.7030113  85.1285993  80.8581313  26.9360113  85.8335993  80.6081313
  16.3290113  76.0925993  71.3231313  15.8180113  76.1455993  70.6171313
  17.1130113  76.3325993  71.0271313  16.3690113  76.1355993  71.1751313
  21.0560113  83.6225993  79.2421313  20.2090113  83.4285993  79.3231313
  21.3800113  83.4575993  80.0351313  20.9780113  83.5695993  79.3711313
  14.9040113  83.3155993  81.5581313  15.6260113  83.8035993  81.5211313
  14.6340113  83.2855993  80.7291313  14.9710113  83.3835993  81.4301313
  18.1340113  78.4865993  78.2931313  18.9800113  78.2965993  78.3911313
  17.7640113  77.7095993  78.1551313  18.2040113  78.3435993  78.2871313
  12.9550113  79.8245993  74.9481313  13.4440113  79.5325993  75.6091313
  13.0840113  79.2315993  74.3211313  13.0460113  79.6935993  74.9531313
  17.4800113  81.2585993  70.4341313  16.8700113  80.8535993  70.9081313
  17.0940113  81.3765993  69.6611313  17.3330113  81.2155993  70.3901313
  29.2460113  82.9175993  79.2361313  28.9600113  83.3185993  79.9561313
  30.1060113  82.8555993  79.3631313  29.3310113  82.9675993  79.3611313
  18.9350113  79.7195993  73.1441313  19.2070113  80.5455993  73.2111313
  18.0720113  79.7945993  73.0481313  18.8480113  79.8525993  73.1391313
  12.4150113  75.6895993  79.6801313  12.4590113  76.0335993  78.8791313
  13.1700113  75.9265993  80.0471313  12.5330113  75.7755993  79.6161313
  30.3770113  88.5505993  79.7651313  30.6670113  88.8075993  78.9841313
  31.0720113  88.6465993  80.2841313  30.5230113  88.6025993  79.7261313
  26.9820113  87.1535993  71.7471313  27.3160113  86.3475993  71.7821313
  26.2270113  87.0815993  72.1771313  26.9200113  87.0235993  71.8161313
  27.4640113  78.9875993  77.4061313  26.7190113  78.6645993  77.7241313
  27.4660113  79.8135993  77.6861313  27.3540113  79.0615993  77.4941313
  24.3560113  85.0285993  71.1501313  25.0400113  84.5145993  70.9811313
  23.9390113  85.0745993  70.3851313  24.3950113  84.9595993  71.0121313
  19.0010113  88.2225993  80.5621313  18.3770113  88.8045993  80.3801313
  19.2490113  87.9365993  79.7761313  18.9450113  88.2665993  80.4191313
  29.0820113  79.5525993  71.3941313  29.4600113  80.2295993  70.9941313
  28.2400113  79.7765993  71.4251313  29.0130113  79.6855993  71.3391313
  20.5950113  82.9985993  70.4771313  19.7900113  82.8215993  70.1921313
  20.5620113  83.8495993  70.6691313  20.4710113  83.0975993  70.4641313
  16.5250113  79.0655993  80.6271313  16.9650113  78.9625993  79.8811313
  17.0700113  78.7525993  81.2321313  16.6700113  79.0045993  80.6061313
  26.7770113  79.1515993  74.7691313  26.9840113  78.9505993  75.5931313
  27.5330113  79.4195993  74.4271313  26.9190113  79.1615993  74.8401313
  20.0720113  74.0505993  80.6741313  19.2460113  73.9015993  80.9111313
  20.0320113  74.0855993  79.8031313  19.9440113  74.0335993  80.5801313
  27.7990113  75.2345993  76.2431313  27.0850113  74.7635993  76.4141313
  27.6370113  75.5755993  75.4571313  27.6700113  75.2155993  76.1521313
  28.2420113  83.1785993  74.6231313  28.7180113  82.4495993  74.5751313
  27.4210113  82.8925993  74.5471313  28.1910113  83.0285993  74.6041313
  15.7010113  77.1925993  73.9341313  15.8270113  76.8635993  73.1361313
  14.8890113  76.9435993  74.1331313  15.6000113  77.1075993  73.8461313
  24.4580113  84.3455993  76.9781313  24.5340113  84.6865993  77.7771313
  24.6270113  83.4985993  77.0991313  24.4940113  84.2705993  77.1141313
  21.9800113  83.6195993  76.5431313  21.6820113  83.3045993  77.3001313
  22.6750113  84.0925993  76.7781313  22.0390113  83.6425993  76.6901313
  29.0120113  80.2915993  74.0651313  29.1150113  80.2335993  73.2011313
  29.7530113  79.9595993  74.3831313  29.1370113  80.2345993  73.9841313
  22.9320113  87.2565993  75.1721313  22.7270113  88.0895993  75.0131313
  22.1570113  86.8745993  75.2941313  22.7870113  87.3235993  75.1671313
  14.3060113  78.8135993  70.4671313  13.6340113  78.8275993  71.0231313
  14.4010113  77.9655993  70.2831313  14.2210113  78.6905993  70.5221313
  22.9870113  75.4275993  78.0571313  22.2870113  75.9455993  78.0011313
  23.0250113  75.0475993  77.2731313  22.8890113  75.4485993  77.9331313
  18.2940113  87.5185993  71.5811313  18.7350113  87.5985993  72.3291313
  17.4890113  87.3025993  71.8391313  18.2400113  87.4985993  71.7301313
  26.5850113  75.9435993  80.8571313  27.4400113  76.0425993  81.0021313
  26.2160113  76.4965993  81.4221313  26.6570113  76.0405993  80.9621313
  26.8890113  81.2235993  79.3481313  27.5550113  81.7645993  79.5081313
  26.5440113  81.5345993  78.6091313  26.9360113  81.3495993  79.2631313
  15.6230113  86.5885993  72.1821313  15.3790113  86.2815993  72.9621313
  15.5900113  85.8855993  71.6661313  15.5820113  86.4395993  72.2211313
  18.4420113  84.8335993  70.9251313  17.6240113  84.5655993  71.0651313
  18.4140113  85.6855993  71.1101313  18.3170113  84.9205993  70.9731313
  22.1450113  75.8945993  81.0581313  21.4080113  75.4405993  81.1711313
  22.7160113  75.4925993  81.5811313  22.1200113  75.7675993  81.1521313
  20.4440113  73.4755993  70.8891313  20.5220113  73.7225993  70.0561313
  19.7010113  73.8525993  71.1471313  20.3460113  73.5675993  70.8041313
  27.7940113  88.6415993  81.1011313  28.3210113  88.5585993  80.4101313
  27.4030113  87.8635993  81.1551313  27.8140113  88.5145993  81.0071313
  24.3080113  74.0855993  80.3091313  24.9780113  74.6295993  80.4361313
  23.8050113  74.5095993  79.7361313  24.3330113  74.2285993  80.2431313
  23.6670113  79.8935993  77.8021313  24.2180113  79.2865993  78.1021313
  23.2420113  80.1565993  78.5171313  23.6860113  79.8425993  77.9511313
  13.9150113  78.5435993  77.2881313  13.5470113  78.8455993  78.0191313
  14.4490113  77.9145993  77.5721313  13.9390113  78.4955993  77.4381313
  25.6370113  81.7245993  74.3641313  25.7050113  80.8745993  74.5451313
  24.8140113  81.8105993  74.0861313  25.5250113  81.6115993  74.3501313
  19.5560113  82.6155993  73.3021313  19.6560113  82.7545993  72.4471313
  20.3740113  82.5555993  73.5981313  19.6910113  82.6265993  73.2191313
  24.7910113  86.9445993  73.1041313  24.5400113  86.8165993  73.9301313
  24.4740113  86.2495993  72.6831313  24.7070113  86.8235993  73.1641313
  29.4350113  78.6025993  81.2241313  28.6020113  78.8525993  81.1521313
  29.3790113  77.7625993  81.4531313  29.3040113  78.5155993  81.2471313
  21.6770113  85.1525993  72.5341313  22.3940113  84.8055993  72.1781313
  21.6430113  85.9525993  72.1861313  21.7780113  85.2195993  72.4301313
  23.0860113  73.7935993  56.7728903  22.8410113  74.2815993  56.0928903
  23.9490113  73.7205993  56.6728903  23.1770113  73.8545993  56.6578903
  22.8950113  80.7095993  61.4438903  22.3710113  81.3055993  61.8068903
  23.2920113  80.3415993  62.1278903  22.8760113  80.7435993  61.5988903
  12.7640113  84.8495993  56.8998903  12.3230113  84.9675993  57.6428903
  12.4810113  84.0745993  56.6148903  12.6570113  84.7525993  56.9678903
  29.0390113  88.1505993  54.4148903  29.7400113  87.6315993  54.4108903
  28.4520113  87.7055993  53.9458903  29.0560113  88.0075993  54.3448903
  12.5070113  78.6415993  53.4068903  11.7290113  78.8035993  53.0468903
  12.5460113  77.7705993  53.4288903  12.3980113  78.5365993  53.3568903
  15.6460113  83.9045993  52.0788903  15.2540113  83.5335993  51.3928903
  15.5660113  83.3065993  52.7078903  15.5760113  83.7615993  52.0698903
  25.5660113  81.7765993  58.1198903  25.6460113  81.7805993  57.2508903
  24.9820113  81.1445993  58.2688903  25.4910113  81.6835993  58.0138903
  15.2730113  85.5455993  55.9788903  15.8810113  85.3755993  56.5818903
  14.5220113  85.4055993  56.3998903  15.2520113  85.4995993  56.1298903
  19.5550113  74.8805993  55.9278903  19.4850113  75.5575993  55.3818903
  20.2960113  74.4925993  55.6788903  19.6540113  74.9235993  55.8098903
  14.1640113  88.6365993  52.0558903  14.6310113  88.7205993  51.3238903
  14.6190113  88.0585993  52.5248903  14.3000113  88.5635993  52.0168903
  12.7040113  87.5845993  63.1548903  12.8330113  87.3045993  63.9708903
  12.0940113  87.0435993  62.8458903  12.6330113  87.4635993  63.2298903
  19.2780113  85.1095993  68.2218903  19.0420113  85.1065993  69.0618903
  18.5300113  84.9615993  67.7978903  19.1320113  85.0865993  68.2828903
  14.1500113  82.1055993  57.3568903  13.6880113  81.7135993  56.7298903
  14.8500113  81.5925993  57.4488903  14.1850113  81.9725993  57.2778903
  18.6580113  77.7155993  62.7038903  19.3360113  77.7335993  62.1548903
  18.6130113  76.8795993  62.9488903  18.7510113  77.5945993  62.6588903
  19.2600113  88.3015993  65.4848903  19.3980113  89.0615993  65.0778903
  20.0510113  87.9365993  65.5118903  19.3970113  88.3605993  65.4288903
  16.1510113  80.2055993  57.3798903  16.9680113  80.0185993  57.6228903
  15.6740113  79.5915993  57.7758903  16.2010113  80.0875993  57.4748903
  20.3550113  86.1865993  59.9898903  20.7030113  85.3875993  60.0198903
  21.0200113  86.6905993  59.7348903  20.5050113  86.1425993  59.9568903
  20.4120113  85.6355993  56.2008903  20.7430113  84.9915993  56.6868903
  20.6520113  85.4245993  55.3898903  20.4960113  85.5095993  56.1528903
  22.3800113  79.7665993  67.5398903  21.5320113  79.6675993  67.3618903
  22.4090113  80.5115993  67.9938903  22.2590113  79.8625993  67.5808903
  16.7480113  75.2995993  56.6458903  16.4520113  75.8005993  55.9958903
  17.6150113  75.3775993  56.5888903  16.8320113  75.3855993  56.5418903
  26.9380113  72.7265993  66.6538903  26.7800113  73.4955993  66.2718903
  26.1660113  72.5065993  66.9978903  26.8000113  72.8075993  66.6488903
  19.7270113  74.4415993  58.8688903  19.8000113  75.3015993  58.9978903
  19.6890113  74.3665993  58.0008903  19.7320113  74.5575993  58.7598903
  24.4000113  77.3675993  51.1678903  23.9500113  78.0485993  51.4748903
  24.5140113  76.8635993  51.8708903  24.3510113  77.3935993  51.3168903
  12.6060113  79.8665993  60.3698903  12.3500113  80.6975993  60.2948903
  11.9420113  79.4835993  60.7868903  12.4700113  79.9325993  60.4208903
  18.3560113  87.4205993  55.7498903  17.7770113  87.1455993  56.3418903
  18.9800113  86.8115993  55.7748903  18.3630113  87.2905993  55.8408903
  15.6350113  74.6835993  60.8608903  15.1140113  74.0555993  60.5528903
  16.2260113  74.2465993  61.3318903  15.6460113  74.5255993  60.8848903
  18.9410113  76.8165993  70.1588903  19.0580113  76.3625993  69.4228903
  19.2290113  77.6145993  69.9558903  19.0010113  76.8675993  70.0198903
  14.0610113  88.2465993  56.2008903  14.7170113  87.6715993  56.2158903
  14.4500113  88.9955993  55.9798903  14.2160113  88.2715993  56.1708903
  29.7940113  77.3405993  57.4628903  29.4480113  78.0185993  57.8888903
  29.1580113  76.7425993  57.4788903  29.6490113  77.3525993  57.5278903
  14.6740113  76.4135993  69.1428903  13.8960113  76.0235993  69.0708903
  15.1650113  76.0015993  68.5518903  14.6310113  76.2945993  69.0448903
  14.8790113  86.7335993  59.7008903  15.3020113  86.3775993  59.0268903
  15.2030113  86.3115993  60.3928903  14.9890113  86.6185993  59.7038903
  21.3230113  74.0565993  68.3108903  21.5010113  73.2475993  68.0358903
  21.1800113  74.4975993  67.5718903  21.3280113  74.0025993  68.1608903
  21.9170113  78.9825993  57.0838903  22.2040113  78.7505993  56.2938903
  22.6490113  79.0615993  57.5528903  22.0670113  78.9595993  57.0368903
  22.6390113  79.3215993  52.2048903  22.9200113  80.1095993  52.4538903
  21.8630113  79.4865993  51.8418903  22.5660113  79.4625993  52.1878903
  29.4690113  75.6635993  62.8318903  30.2260113  75.7355993  62.4038903
  29.5320113  74.8905993  63.2308903  29.5900113  75.5605993  62.8268903
  12.0220113  76.9615993  66.7288903  12.0180113  77.5485993  67.3748903
  12.6160113  77.2735993  66.1718903  12.1090113  77.0945993  66.7418903
  24.3600113  87.2955993  67.2708903  24.3260113  87.6775993  68.0548903
  25.2140113  87.2535993  67.0998903  24.4810113  87.3455993  67.3618903
  21.4980113  87.4925993  52.0208903  21.3170113  88.0375993  52.6778903
  22.2640113  87.7825993  51.7198903  21.5840113  87.6165993  52.0738903
  25.0050113  75.3885993  53.0748903  25.5450113  74.7065993  53.1508903
  25.0670113  75.7865993  53.8488903  25.0940113  75.3465993  53.2008903
  12.9590113  76.5565993  55.6438903  12.8450113  75.6925993  55.6748903
  12.4840113  76.8505993  56.3138903  12.8720113  76.4725993  55.7468903
  15.1010113  88.9665993  63.8588903  14.4030113  88.4585993  63.9848903
  15.3610113  88.7615993  63.0508903  15.0360113  88.8615993  63.7578903
  22.2630113  77.7645993  54.3888903  21.7550113  77.1025993  54.1348903
  22.3150113  78.2685993  53.6788903  22.1960113  77.7415993  54.2468903
  22.2630113  74.7055993  54.2798903  21.8080113  74.3035993  53.6538903
  23.0360113  74.8605993  53.9048903  22.3100113  74.6695993  54.1318903
  20.8610113  77.0725993  58.8018903  20.9350113  77.6405993  58.1438903
  20.9820113  77.5645993  59.5118903  20.8890113  77.2295993  58.8098903
  26.0860113  86.9075993  57.2138903  26.7870113  86.4255993  57.4028903
  25.4260113  86.3385993  57.2588903  26.0920113  86.7525993  57.2478903
  16.4620113  87.8175993  66.4258903  17.3030113  87.8805993  66.2038903
  16.4250113  88.2145993  67.2018903  16.5810113  87.8855993  66.5078903
  15.4690113  72.8955993  57.1498903  16.0050113  73.5835993  57.1398903
  15.4720113  72.6215993  56.3218903  15.5480113  72.9565993  57.0258903
  18.4250113  83.3285993  61.1748903  18.5970113  83.1185993  62.0038903
  17.7700113  82.7945993  60.9588903  18.3540113  83.2185993  61.2658903
  24.6530113  77.2425993  64.6898903  24.5580113  77.5615993  65.4958903
  24.0600113  76.6035993  64.6518903  24.5510113  77.1945993  64.8038903
  19.1750113  83.2665993  63.7648903  19.2280113  84.1135993  63.9668903
  18.8900113  82.8965993  64.5018903  19.1410113  83.3365993  63.9028903
  25.3520113  83.9615993  62.8948903  24.8380113  83.5495993  63.4658903
  25.2260113  84.8055993  63.0758903  25.2580113  84.0255993  63.0058903
  25.9090113  73.1865993  57.5258903  25.9580113  72.8685993  58.3368903
  26.2320113  72.5425993  57.0328903  25.9640113  73.0445993  57.5728903
  11.9960113  87.6375993  69.9758903  12.7520113  87.9865993  70.2338903
  12.1730113  86.7845993  69.9188903  12.1340113  87.5625993  70.0058903
  28.3730113  77.4225993  65.8338903  29.1450113  77.1975993  66.1708903
  27.8980113  77.6395993  66.5338903  28.4170113  77.4215993  65.9868903
  15.9170113  76.7055993  58.8038903  16.1890113  76.2755993  58.0958903
  15.7410113  76.0695993  59.3748903  15.9310113  76.5485993  58.7838903
  28.6050113  84.4005993  53.0218903  28.7240113  84.1135993  53.8368903
  29.4120113  84.4215993  52.6918903  28.7410113  84.3615993  53.0938903
  15.7410113  84.1325993  58.3528903  16.5920113  84.0525993  58.1798903
  15.3840113  83.4505993  57.9408903  15.8140113  84.0195993  58.2658903
  14.0580113  77.8075993  61.8858903  14.9010113  78.0275993  61.8428903
  13.6690113  78.3805993  61.3548903  14.1250113  77.9245993  61.8008903
  26.5000113  80.9375993  52.6068903  26.2800113  81.6685993  52.1848903
  26.0520113  80.9885993  53.3538903  26.4010113  81.0525993  52.6548903
  18.1090113  84.1395993  56.5878903  18.8220113  84.6345993  56.6778903
  18.3310113  83.5725993  55.9618903  18.2470113  84.1285993  56.5088903
  30.6870113  75.7985993  52.0598903  30.0250113  75.2305993  52.0828903
  30.4940113  76.3105993  51.3798903  30.5610113  75.7905993  51.9628903
  12.2650113  85.7825993  59.9078903  11.5980113  86.2705993  60.1838903
  12.9450113  86.3275993  59.9368903  12.2670113  85.9345993  59.9528903
  19.9120113  79.4925993  70.0038903  19.4280113  80.0695993  70.4458903
  19.8840113  79.7875993  69.1828903  19.8360113  79.6215993  69.9478903
  31.0100113  80.1765993  64.6158903  31.2250113  79.3765993  64.3398903
  30.1600113  80.2365993  64.4268903  30.9160113  80.0675993  64.5468903
  12.3310113  82.4665993  55.0108903  12.1460113  81.6275993  55.1628903
  12.9900113  82.4305993  54.4408903  12.4010113  82.3375993  54.9488903
  28.6890113  75.3565993  54.3388903  29.4350113  74.9495993  54.5378903
  28.9520113  76.0715993  53.9138903  28.8380113  75.4025993  54.3058903
  22.6320113  87.8425993  58.9148903  22.1090113  88.4765993  58.6218903
  22.9420113  87.4785993  58.1858903  22.6000113  87.8825993  58.7638903
  12.5030113  86.6305993  54.5858903  13.0550113  87.1995993  54.9498903
  12.2710113  86.1155993  55.2508903  12.5500113  86.6385993  54.7378903
  16.7070113  85.6305993  61.6748903  17.1740113  85.9195993  62.3528903
  17.2790113  85.1525993  61.2208903  16.8610113  85.6025993  61.7078903
  25.1430113  77.6445993  59.4118903  25.4870113  77.7965993  60.1988903
  24.6900113  76.9065993  59.5248903  25.1270113  77.5575993  59.5448903
  12.3330113  85.0795993  52.2138903  13.0890113  84.6475993  52.2718903
  12.3480113  85.6115993  52.9048903  12.4470113  85.0945993  52.3248903
  13.2730113  83.3005993  60.2188903  13.7040113  83.1715993  59.4718903
  13.0680113  84.1485993  60.1928903  13.3060113  83.4065993  60.1048903
  19.6190113  76.8645993  53.8688903  19.6170113  76.7475993  53.0038903
  19.4380113  77.7125993  53.9608903  19.5920113  76.9725993  53.7548903
  17.3570113  86.8165993  58.5008903  17.4830113  87.6595993  58.6878903
  18.0250113  86.4175993  58.8968903  17.4750113  86.8825993  58.5868903
  15.4870113  80.2995993  68.3628903  14.9510113  79.7935993  68.8308903
  15.5070113  79.9095993  67.5828903  15.4100113  80.1665993  68.3168903
  15.9720113  79.6965993  53.5028903  15.8440113  79.2485993  54.2408903
  15.3900113  79.3545993  52.9508903  15.8670113  79.5795993  53.5308903
  16.1390113  81.5265993  60.1018903  15.3580113  81.4675993  59.7188903
  16.2110113  80.7745993  60.5388903  16.0340113  81.4075993  60.1098903
  16.5690113  81.2635993  63.5698903  16.5940113  80.5885993  63.0188903
  15.9230113  81.7595993  63.2578903  16.4780113  81.2365993  63.4428903
  26.4640113  78.9765993  61.9658903  25.8020113  79.3045993  62.4288903
  26.6510113  79.6105993  61.3968903  26.3940113  79.1185993  61.9498903
  23.1090113  74.8825993  65.3948903  23.2580113  74.0575993  65.1518903
  23.4880113  74.9375993  66.1788903  23.1870113  74.7685993  65.4748903
  24.6570113  76.9455993  55.4768903  25.1470113  77.6625993  55.3998903
  23.8670113  77.2065993  55.2138903  24.6130113  77.0895993  55.4268903
  14.3680113  82.6185993  69.1288903  14.3310113  83.1195993  68.4148903
  14.6990113  81.8665993  68.8338903  14.4110113  82.5805993  68.9798903
  25.9710113  84.8235993  67.3868903  26.4550113  85.5415993  67.4848903
  26.3650113  84.3965993  66.7358903  26.1010113  84.8665993  67.3048903
  20.2670113  87.6685993  68.5638903  20.6210113  87.4905993  69.3408903
  19.8310113  86.9395993  68.3648903  20.2550113  87.5345993  68.6498903
  21.2390113  78.4155993  61.2018903  21.7190113  79.1145993  61.4098903
  21.6120113  77.7685993  61.6528903  21.3650113  78.4235993  61.2988903
  23.4280113  81.5845993  53.4758903  23.4200113  82.3065993  52.9858903
  22.7890113  81.7195993  54.0528903  23.3330113  81.7115993  53.4888903
  28.4000113  85.4545993  57.4568903  28.7560113  85.1045993  58.1718903
  28.3920113  84.7935993  56.8868903  28.4520113  85.3045993  57.4778903
  24.4450113  88.5205993  61.3008903  23.8420113  88.2245993  60.7438903
  24.9900113  88.9725993  60.7918903  24.4360113  88.5435993  61.1428903
  24.4580113  85.3715993  60.7008903  23.6610113  85.5955993  60.9748903
  24.7160113  84.7775993  61.2858903  24.3780113  85.3165993  60.8278903
  18.0210113  73.9265993  53.1368903  18.1180113  73.8195993  53.9978903
  17.3130113  74.4325993  53.0718903  17.9310113  73.9855993  53.2548903
  27.7180113  83.3695993  65.5468903  27.7730113  83.4945993  64.6848903
  28.4710113  83.6895993  65.8488903  27.8370113  83.4345993  65.4638903
  28.7500113  73.6675993  68.5338903  28.1130113  73.2675993  68.0918903
  28.7760113  73.2365993  69.2918903  28.6600113  73.5455993  68.5798903
  15.1430113  82.2335993  54.3798903  15.4670113  81.4545993  54.1578903
  15.7890113  82.6015993  54.8348903  15.2860113  82.1725993  54.4138903
  23.4490113  83.1755993  65.1468903  23.2940113  83.7855993  65.7508903
  23.9830113  82.6175993  65.5528903  23.5050113  83.1835993  65.2958903
  12.1400113  73.8945993  55.3478903  12.2690113  73.1865993  54.8558903
  11.7730113  73.5765993  56.0728903  12.1050113  73.7425993  55.3828903
  21.8330113  81.5755993  55.8048903  21.8920113  82.2255993  56.3838903
  21.6440113  80.8795993  56.2958903  21.8140113  81.5685993  55.9628903
  27.0590113  85.9045993  61.6738903  26.5800113  86.2025993  61.0078903
  26.7030113  85.1285993  61.8518903  26.9360113  85.8335993  61.6018903
  16.3290113  76.0925993  52.3168903  15.8180113  76.1455993  51.6108903
  17.1130113  76.3325993  52.0208903  16.3690113  76.1355993  52.1688903
  21.0560113  83.6225993  60.2358903  20.2090113  83.4285993  60.3168903
  21.3800113  83.4575993  61.0288903  20.9780113  83.5695993  60.3648903
  14.9040113  83.3155993  62.5518903  15.6260113  83.8035993  62.5148903
  14.6340113  83.2855993  61.7228903  14.9710113  83.3835993  62.4238903
  18.1340113  78.4865993  59.2868903  18.9800113  78.2965993  59.3848903
  17.7640113  77.7095993  59.1488903  18.2040113  78.3435993  59.2808903
  12.9550113  79.8245993  55.9418903  13.4440113  79.5325993  56.6028903
  13.0840113  79.2315993  55.3148903  13.0460113  79.6935993  55.9468903
  27.9900113  82.8465993  62.7928903  27.9830113  82.0705993  63.1908903
  27.1490113  83.0805993  62.7858903  27.8650113  82.7665993  62.8508903
  17.4800113  81.2585993  51.4278903  16.8700113  80.8535993  51.9018903
  17.0940113  81.3765993  50.6548903  17.3330113  81.2155993  51.3838903
  14.2990113  84.3675993  66.8298903  13.8780113  83.8495993  66.2688903
  13.9470113  85.1535993  66.6868903  14.1850113  84.4075993  66.7258903
  29.2460113  82.9175993  60.2298903  28.9600113  83.3185993  60.9498903
  30.1060113  82.8555993  60.3568903  29.3310113  82.9675993  60.3548903
  18.9350113  79.7195993  54.1378903  19.2070113  80.5455993  54.2048903
  18.0720113  79.7945993  54.0418903  18.8480113  79.8525993  54.1328903
  26.9080113  76.8415993  68.7698903  26.3830113  77.3005993  69.2938903
  26.5470113  76.0465993  68.7638903  26.7770113  76.7915993  68.8458903
  12.4150113  75.6895993  60.6738903  12.4590113  76.0335993  59.8728903
  13.1700113  75.9265993  61.0408903  12.5330113  75.7755993  60.6098903
  30.3770113  88.5505993  60.7588903  30.6670113  88.8075993  59.9778903
  31.0720113  88.6465993  61.2778903  30.5230113  88.6025993  60.7198903
  25.4000113  80.4105993  68.8458903  25.4730113  80.5145993  69.7088903
  24.7660113  80.9685993  68.6248903  25.3170113  80.5085993  68.9408903
  27.6680113  80.7295993  67.2108903  27.9870113  81.5155993  67.4138903
  27.2980113  80.4595993  67.9538903  27.6610113  80.8055993  67.3508903
  26.9820113  87.1535993  52.7408903  27.3160113  86.3475993  52.7758903
  26.2270113  87.0815993  53.1708903  26.9200113  87.0235993  52.8098903
  27.4640113  78.9875993  58.3998903  26.7190113  78.6645993  58.7178903
  27.4660113  79.8135993  58.6798903  27.3540113  79.0615993  58.4878903
  30.3660113  81.2715993  69.9458903  30.3140113  80.9305993  69.1448903
  31.1030113  81.7385993  69.9238903  30.4670113  81.2905993  69.8238903
  29.9040113  84.9475993  66.1518903  30.5320113  84.3985993  65.8958903
  29.8430113  85.5125993  65.4898903  29.9880113  84.9505993  66.0158903
  24.3560113  85.0285993  52.1438903  25.0400113  84.5145993  51.9748903
  23.9390113  85.0745993  51.3788903  24.3950113  84.9595993  52.0058903
  19.0380113  86.1785993  63.4478903  18.7400113  86.7705993  64.0148903
  19.0930113  86.6205993  62.6988903  19.0020113  86.3315993  63.4208903
  17.0170113  85.1285993  66.8458903  16.2110113  84.8385993  67.0128903
  16.9280113  85.9965993  66.8518903  16.8850113  85.2135993  66.8708903
  26.3760113  75.3175993  65.8608903  27.1200113  75.7695993  65.7978903
  25.8100113  75.7875993  65.3918903  26.4030113  75.4545993  65.7828903
  21.5540113  82.6015993  62.9388903  22.0300113  82.9755993  63.5668903
  20.7310113  82.7355993  63.1978903  21.5030113  82.6765993  63.0698903
  18.2640113  78.2045993  65.6798903  18.4250113  77.4605993  66.1068903
  18.2190113  77.9555993  64.8448903  18.2810113  78.0575993  65.6198903
  27.6610113  73.2975993  63.5308903  27.3810113  74.1225993  63.4868903
  28.3770113  73.3505993  64.0268903  27.7260113  73.4275993  63.5978903
  20.0160113  74.0125993  65.5598903  20.7210113  74.3325993  65.1578903
  20.2570113  73.2055993  65.7868903  20.1550113  73.9405993  65.5338903
  19.0010113  88.2225993  61.5558903  18.3770113  88.8045993  61.3738903
  19.2490113  87.9365993  60.7698903  18.9450113  88.2665993  61.4128903
  23.3100113  84.8565993  68.5448903  24.0670113  85.1425993  68.2188903
  22.7630113  84.9085993  67.8668903  23.3410113  84.9065993  68.3958903
  27.2190113  87.4065993  67.0488903  27.5650113  87.6765993  67.8028903
  27.5130113  87.9885993  66.4688903  27.3140113  87.5325993  67.0748903
  29.0820113  79.5525993  52.3878903  29.4600113  80.2295993  51.9878903
  28.2400113  79.7765993  52.4188903  29.0130113  79.6855993  52.3328903
  20.5950113  82.9985993  51.4708903  19.7900113  82.8215993  51.1858903
  20.5620113  83.8495993  51.6628903  20.4710113  83.0975993  51.4578903
  16.5250113  79.0655993  61.6208903  16.9650113  78.9625993  60.8748903
  17.0700113  78.7525993  62.2258903  16.6700113  79.0045993  61.5998903
  24.5410113  78.1675993  67.2128903  23.8930113  78.6375993  67.5608903
  25.1060113  78.0785993  67.8718903  24.5290113  78.2235993  67.3618903
  24.2290113  79.7045993  63.5108903  24.5310113  80.1245993  64.2138903
  24.2650113  78.8645993  63.7428903  24.2790113  79.6425993  63.6488903
  26.7770113  79.1515993  55.7628903  26.9840113  78.9505993  56.5868903
  27.5330113  79.4195993  55.4208903  26.9190113  79.1615993  55.8338903
  20.0720113  74.0505993  61.6678903  19.2460113  73.9015993  61.9048903
  20.0320113  74.0855993  60.7968903  19.9440113  74.0335993  61.5738903
  27.7990113  75.2345993  57.2368903  27.0850113  74.7635993  57.4078903
  27.6370113  75.5755993  56.4508903  27.6700113  75.2155993  57.1458903
  28.2420113  83.1785993  55.6168903  28.7180113  82.4495993  55.5688903
  27.4210113  82.8925993  55.5408903  28.1910113  83.0285993  55.5978903
  21.7130113  85.0905993  66.4558903  20.9180113  85.0265993  66.8068903
  21.7840113  85.9375993  66.2608903  21.6060113  85.2055993  66.4788903
  12.6370113  74.4485993  67.7028903  12.4970113  75.2435993  67.3718903
  11.8510113  74.2055993  67.9918903  12.5000113  74.5305993  67.6968903
  15.7010113  77.1925993  54.9278903  15.8270113  76.8635993  54.1298903
  14.8890113  76.9435993  55.1268903  15.6000113  77.1075993  54.8398903
  24.4580113  84.3455993  57.9718903  24.5340113  84.6865993  58.7708903
  24.6270113  83.4985993  58.0928903  24.4940113  84.2705993  58.1078903
  21.9800113  83.6195993  57.5368903  21.6820113  83.3045993  58.2938903
  22.6750113  84.0925993  57.7718903  22.0390113  83.6425993  57.6838903
  22.2020113  87.7375993  65.5638903  22.8890113  87.6235993  66.0888903
  22.3360113  88.5285993  65.2198903  22.3230113  87.8375993  65.5908903
  30.3780113  80.3465993  67.3748903  29.5230113  80.2245993  67.5008903
  30.5310113  79.9515993  66.6118903  30.2740113  80.2695993  67.2808903
  24.8910113  81.0115993  65.9508903  24.6360113  80.2925993  66.3728903
  25.7120113  81.1275993  66.2208903  24.9750113  80.9225993  66.0528903
  22.8250113  82.2015993  69.1378903  23.1480113  82.8875993  68.7058903
  22.1210113  82.5245993  69.5398903  22.7680113  82.3505993  69.1328903
  22.6100113  85.6655993  62.9968903  21.9160113  86.0675993  63.3398903
  23.2870113  86.0985993  63.3358903  22.6070113  85.7885993  63.0978903
  27.9870113  88.2585993  69.5768903  28.7630113  87.8685993  69.6598903
  27.5180113  87.9225993  70.2318903  28.0320113  88.1515993  69.6858903
  15.6780113  79.2035993  65.3438903  16.0530113  79.8225993  64.8568903
  16.3520113  78.7295993  65.6288903  15.8330113  79.2255993  65.3138903
  13.4530113  77.6515993  64.6188903  13.5300113  77.4825993  63.7658903
  14.1990113  78.0575993  64.8158903  13.5740113  77.6865993  64.5218903
  29.0120113  80.2915993  55.0588903  29.1150113  80.2335993  54.1948903
  29.7530113  79.9595993  55.3768903  29.1370113  80.2345993  54.9778903
  16.0070113  75.0615993  67.0298903  15.9260113  74.2175993  67.2358903
  15.6930113  75.1055993  66.2168903  15.9490113  74.9435993  66.9398903
  22.9320113  87.2565993  56.1658903  22.7270113  88.0895993  56.0068903
  22.1570113  86.8745993  56.2878903  22.7870113  87.3235993  56.1608903
  28.1140113  80.4375993  64.4148903  28.1120113  79.5745993  64.5388903
  28.1810113  80.7615993  65.2218903  28.1240113  80.3575993  64.5518903
  12.8500113  82.8775993  64.8428903  13.1700113  83.0965993  64.0618903
  12.7500113  82.0125993  64.7878903  12.8820113  82.7825993  64.7198903
  14.3060113  78.8135993  51.4608903  13.6340113  78.8275993  52.0168903
  14.4010113  77.9655993  51.2768903  14.2210113  78.6905993  51.5158903
  23.9930113  75.2375993  68.1968903  24.0850113  75.9495993  68.6908903
  23.3560113  74.7925993  68.5938903  23.9120113  75.2765993  68.3288903
  22.9870113  75.4275993  59.0508903  22.2870113  75.9455993  58.9948903
  23.0250113  75.0475993  58.2668903  22.8890113  75.4485993  58.9268903
  18.2940113  87.5185993  52.5748903  18.7350113  87.5985993  53.3228903
  17.4890113  87.3025993  52.8328903  18.2400113  87.4985993  52.7238903
  26.5850113  75.9435993  61.8508903  27.4400113  76.0425993  61.9958903
  26.2160113  76.4965993  62.4158903  26.6570113  76.0405993  61.9558903
  17.6130113  82.1695993  66.2278903  17.2170113  82.9435993  66.3028903
  17.2070113  81.7965993  65.5518903  17.4950113  82.2285993  66.1388903
  26.8890113  81.2235993  60.3418903  27.5550113  81.7645993  60.5018903
  26.5440113  81.5345993  59.6028903  26.9360113  81.3495993  60.2568903
  15.6230113  86.5885993  53.1758903  15.3790113  86.2815993  53.9558903
  15.5900113  85.8855993  52.6598903  15.5820113  86.4395993  53.2148903
  18.4420113  84.8335993  51.9188903  17.6240113  84.5655993  52.0588903
  18.4140113  85.6855993  52.1038903  18.3170113  84.9205993  51.9668903
  18.0420113  75.1465993  63.6778903  17.1780113  75.2305993  63.7578903
  18.2620113  74.6325993  64.3468903  17.9470113  75.0835993  63.7888903
  30.0600113  73.7815993  65.0068903  30.0080113  73.7375993  65.8768903
  30.7470113  73.2785993  64.8168903  30.1540113  73.7015993  65.1068903
  22.1450113  75.8945993  62.0518903  21.4080113  75.4405993  62.1648903
  22.7160113  75.4925993  62.5748903  22.1200113  75.7675993  62.1458903
  24.8770113  86.7425993  63.8398903  25.0830113  87.0435993  64.6318903
  24.8160113  87.4645993  63.3548903  24.8980113  86.8935993  63.8848903
  19.6480113  80.2235993  67.2558903  19.3260113  79.6475993  66.6858903
  19.2890113  80.9785993  67.0098903  19.5480113  80.2495993  67.1358903
  20.4440113  73.4755993  51.8828903  20.5220113  73.7225993  51.0498903
  19.7010113  73.8525993  52.1408903  20.3460113  73.5675993  51.7978903
  29.6890113  85.3815993  63.2978903  29.6570113  84.5195993  63.1628903
  28.9960113  85.6835993  62.8638903  29.5820113  85.2985993  63.2138903
  27.7940113  88.6415993  62.0948903  28.3210113  88.5585993  61.4038903
  27.4030113  87.8635993  62.1488903  27.8140113  88.5145993  62.0008903
  15.2620113  75.2295993  64.3258903  14.9190113  74.4625993  64.0918903
  14.5670113  75.7535993  64.3898903  15.1090113  75.1935993  64.3008903
  24.3080113  74.0855993  61.3028903  24.9780113  74.6295993  61.4298903
  23.8050113  74.5095993  60.7298903  24.3330113  74.2285993  61.2368903
  23.6670113  79.8935993  58.7958903  24.2180113  79.2865993  59.0958903
  23.2420113  80.1565993  59.5108903  23.6860113  79.8425993  58.9448903
  13.9150113  78.5435993  58.2818903  13.5470113  78.8455993  59.0128903
  14.4490113  77.9145993  58.5658903  13.9390113  78.4955993  58.4318903
  13.6030113  86.9515993  65.7928903  13.0290113  87.3675993  66.3018903
  14.3360113  87.4165993  65.8878903  13.6270113  87.0815993  65.8818903
  25.6370113  81.7245993  55.3578903  25.7050113  80.8745993  55.5388903
  24.8140113  81.8105993  55.0798903  25.5250113  81.6115993  55.3438903
  19.5560113  82.6155993  54.2958903  19.6560113  82.7545993  53.4408903
  20.3740113  82.5555993  54.5918903  19.6910113  82.6265993  54.2128903
  28.9110113  83.0975993  68.5088903  29.5450113  82.9275993  69.0828903
  29.3280113  83.5005993  67.8568903  29.0660113  83.1325993  68.4978903
  24.7910113  86.9445993  54.0978903  24.5400113  86.8165993  54.9238903
  24.4740113  86.2495993  53.6768903  24.7070113  86.8235993  54.1578903
  29.5360113  77.6615993  69.2468903  29.3400113  78.3055993  69.8018903
  28.8140113  77.1715993  69.2388903  29.4010113  77.6845993  69.3278903
  29.4350113  78.6025993  62.2178903  28.6020113  78.8525993  62.1458903
  29.3790113  77.7625993  62.4468903  29.3040113  78.5155993  62.2408903
  18.6950113  75.5905993  67.4118903  18.9290113  75.0145993  66.7988903
  17.8530113  75.4095993  67.5528903  18.6050113  75.4785993  67.3418903
  26.3220113  83.2085993  69.8638903  27.1930113  83.1725993  69.8278903
  26.1030113  83.6285993  69.1318903  26.4190113  83.2645993  69.7508903
  21.6770113  85.1525993  53.5278903  22.3940113  84.8055993  53.1718903
  21.6430113  85.9525993  53.1798903  21.7780113  85.2195993  53.4238903
  23.0860113  73.7935993  37.7666493  22.8410113  74.2815993  37.0866493
  23.9490113  73.7205993  37.6666493  23.1770113  73.8545993  37.6516493
  22.8950113  80.7095993  42.4376493  22.3710113  81.3055993  42.8006493
  23.2920113  80.3415993  43.1216493  22.8760113  80.7435993  42.5926493
  12.7640113  84.8495993  37.8936493  12.3230113  84.9675993  38.6366493
  12.4810113  84.0745993  37.6086493  12.6570113  84.7525993  37.9616493
  29.0390113  88.1505993  35.4086493  29.7400113  87.6315993  35.4046493
  28.4520113  87.7055993  34.9396493  29.0560113  88.0075993  35.3386493
  12.5070113  78.6415993  34.4006493  11.7290113  78.8035993  34.0406493
  12.5460113  77.7705993  34.4226493  12.3980113  78.5365993  34.3506493
  15.6460113  83.9045993  33.0726493  15.2540113  83.5335993  32.3866493
  15.5660113  83.3065993  33.7016493  15.5760113  83.7615993  33.0636493
  25.5660113  81.7765993  39.1136493  25.6460113  81.7805993  38.2446493
  24.9820113  81.1445993  39.2626493  25.4910113  81.6835993  39.0076493
  15.2730113  85.5455993  36.9726493  15.8810113  85.3755993  37.5756493
  14.5220113  85.4055993  37.3936493  15.2520113  85.4995993  37.1236493
  19.5550113  74.8805993  36.9216493  19.4850113  75.5575993  36.3756493
  20.2960113  74.4925993  36.6726493  19.6540113  74.9235993  36.8036493
  14.1640113  88.6365993  33.0496493  14.6310113  88.7205993  32.3176493
  14.6190113  88.0585993  33.5186493  14.3000113  88.5635993  33.0106493
  12.7040113  87.5845993  44.1486493  12.8330113  87.3045993  44.9646493
  12.0940113  87.0435993  43.8396493  12.6330113  87.4635993  44.2236493
  19.2780113  85.1095993  49.2156493  19.0420113  85.1065993  50.0556493
  18.5300113  84.9615993  48.7916493  19.1320113  85.0865993  49.2766493
  14.1500113  82.1055993  38.3506493  13.6880113  81.7135993  37.7236493
  14.8500113  81.5925993  38.4426493  14.1850113  81.9725993  38.2716493
  18.6580113  77.7155993  43.6976493  19.3360113  77.7335993  43.1486493
  18.6130113  76.8795993  43.9426493  18.7510113  77.5945993  43.6526493
  19.2600113  88.3015993  46.4786493  19.3980113  89.0615993  46.0716493
  20.0510113  87.9365993  46.5056493  19.3970113  88.3605993  46.4226493
  16.1510113  80.2055993  38.3736493  16.9680113  80.0185993  38.6166493
  15.6740113  79.5915993  38.7696493  16.2010113  80.0875993  38.4686493
  20.3550113  86.1865993  40.9836493  20.7030113  85.3875993  41.0136493
  21.0200113  86.6905993  40.7286493  20.5050113  86.1425993  40.9506493
  20.4120113  85.6355993  37.1946493  20.7430113  84.9915993  37.6806493
  20.6520113  85.4245993  36.3836493  20.4960113  85.5095993  37.1466493
  22.3800113  79.7665993  48.5336493  21.5320113  79.6675993  48.3556493
  22.4090113  80.5115993  48.9876493  22.2590113  79.8625993  48.5746493
  16.7480113  75.2995993  37.6396493  16.4520113  75.8005993  36.9896493
  17.6150113  75.3775993  37.5826493  16.8320113  75.3855993  37.5356493
  26.9380113  72.7265993  47.6476493  26.7800113  73.4955993  47.2656493
  26.1660113  72.5065993  47.9916493  26.8000113  72.8075993  47.6426493
  19.7270113  74.4415993  39.8626493  19.8000113  75.3015993  39.9916493
  19.6890113  74.3665993  38.9946493  19.7320113  74.5575993  39.7536493
  24.4000113  77.3675993  32.1616493  23.9500113  78.0485993  32.4686493
  24.5140113  76.8635993  32.8646493  24.3510113  77.3935993  32.3106493
  12.6060113  79.8665993  41.3636493  12.3500113  80.6975993  41.2886493
  11.9420113  79.4835993  41.7806493  12.4700113  79.9325993  41.4146493
  18.3560113  87.4205993  36.7436493  17.7770113  87.1455993  37.3356493
  18.9800113  86.8115993  36.7686493  18.3630113  87.2905993  36.8346493
  15.6350113  74.6835993  41.8546493  15.1140113  74.0555993  41.5466493
  16.2260113  74.2465993  42.3256493  15.6460113  74.5255993  41.8786493
  18.9410113  76.8165993  51.1526493  19.0580113  76.3625993  50.4166493
  19.2290113  77.6145993  50.9496493  19.0010113  76.8675993  51.0136493
  14.0610113  88.2465993  37.1946493  14.7170113  87.6715993  37.2096493
  14.4500113  88.9955993  36.9736493  14.2160113  88.2715993  37.1646493
  29.7940113  77.3405993  38.4566493  29.4480113  78.0185993  38.8826493
  29.1580113  76.7425993  38.4726493  29.6490113  77.3525993  38.5216493
  14.6740113  76.4135993  50.1366493  13.8960113  76.0235993  50.0646493
  15.1650113  76.0015993  49.5456493  14.6310113  76.2945993  50.0386493
  14.8790113  86.7335993  40.6946493  15.3020113  86.3775993  40.0206493
  15.2030113  86.3115993  41.3866493  14.9890113  86.6185993  40.6976493
  21.3230113  74.0565993  49.3046493  21.5010113  73.2475993  49.0296493
  21.1800113  74.4975993  48.5656493  21.3280113  74.0025993  49.1546493
  21.9170113  78.9825993  38.0776493  22.2040113  78.7505993  37.2876493
  22.6490113  79.0615993  38.5466493  22.0670113  78.9595993  38.0306493
  22.6390113  79.3215993  33.1986493  22.9200113  80.1095993  33.4476493
  21.8630113  79.4865993  32.8356493  22.5660113  79.4625993  33.1816493
  29.4690113  75.6635993  43.8256493  30.2260113  75.7355993  43.3976493
  29.5320113  74.8905993  44.2246493  29.5900113  75.5605993  43.8206493
  12.0220113  76.9615993  47.7226493  12.0180113  77.5485993  48.3686493
  12.6160113  77.2735993  47.1656493  12.1090113  77.0945993  47.7356493
  24.3600113  87.2955993  48.2646493  24.3260113  87.6775993  49.0486493
  25.2140113  87.2535993  48.0936493  24.4810113  87.3455993  48.3556493
  21.4980113  87.4925993  33.0146493  21.3170113  88.0375993  33.6716493
  22.2640113  87.7825993  32.7136493  21.5840113  87.6165993  33.0676493
  25.0050113  75.3885993  34.0686493  25.5450113  74.7065993  34.1446493
  25.0670113  75.7865993  34.8426493  25.0940113  75.3465993  34.1946493
  12.9590113  76.5565993  36.6376493  12.8450113  75.6925993  36.6686493
  12.4840113  76.8505993  37.3076493  12.8720113  76.4725993  36.7406493
  15.1010113  88.9665993  44.8526493  14.4030113  88.4585993  44.9786493
  15.3610113  88.7615993  44.0446493  15.0360113  88.8615993  44.7516493
  22.2630113  77.7645993  35.3826493  21.7550113  77.1025993  35.1286493
  22.3150113  78.2685993  34.6726493  22.1960113  77.7415993  35.2406493
  22.2630113  74.7055993  35.2736493  21.8080113  74.3035993  34.6476493
  23.0360113  74.8605993  34.8986493  22.3100113  74.6695993  35.1256493
  20.8610113  77.0725993  39.7956493  20.9350113  77.6405993  39.1376493
  20.9820113  77.5645993  40.5056493  20.8890113  77.2295993  39.8036493
  26.0860113  86.9075993  38.2076493  26.7870113  86.4255993  38.3966493
  25.4260113  86.3385993  38.2526493  26.0920113  86.7525993  38.2416493
  16.4620113  87.8175993  47.4196493  17.3030113  87.8805993  47.1976493
  16.4250113  88.2145993  48.1956493  16.5810113  87.8855993  47.5016493
  15.4690113  72.8955993  38.1436493  16.0050113  73.5835993  38.1336493
  15.4720113  72.6215993  37.3156493  15.5480113  72.9565993  38.0196493
  18.4250113  83.3285993  42.1686493  18.5970113  83.1185993  42.9976493
  17.7700113  82.7945993  41.9526493  18.3540113  83.2185993  42.2596493
  24.6530113  77.2425993  45.6836493  24.5580113  77.5615993  46.4896493
  24.0600113  76.6035993  45.6456493  24.5510113  77.1945993  45.7976493
  19.1750113  83.2665993  44.7586493  19.2280113  84.1135993  44.9606493
  18.8900113  82.8965993  45.4956493  19.1410113  83.3365993  44.8966493
  25.3520113  83.9615993  43.8886493  24.8380113  83.5495993  44.4596493
  25.2260113  84.8055993  44.0696493  25.2580113  84.0255993  43.9996493
  25.9090113  73.1865993  38.5196493  25.9580113  72.8685993  39.3306493
  26.2320113  72.5425993  38.0266493  25.9640113  73.0445993  38.5666493
  11.9960113  87.6375993  50.9696493  12.7520113  87.9865993  51.2276493
  12.1730113  86.7845993  50.9126493  12.1340113  87.5625993  50.9996493
  28.3730113  77.4225993  46.8276493  29.1450113  77.1975993  47.1646493
  27.8980113  77.6395993  47.5276493  28.4170113  77.4215993  46.9806493
  15.9170113  76.7055993  39.7976493  16.1890113  76.2755993  39.0896493
  15.7410113  76.0695993  40.3686493  15.9310113  76.5485993  39.7776493
  28.6050113  84.4005993  34.0156493  28.7240113  84.1135993  34.8306493
  29.4120113  84.4215993  33.6856493  28.7410113  84.3615993  34.0876493
  15.7410113  84.1325993  39.3466493  16.5920113  84.0525993  39.1736493
  15.3840113  83.4505993  38.9346493  15.8140113  84.0195993  39.2596493
  14.0580113  77.8075993  42.8796493  14.9010113  78.0275993  42.8366493
  13.6690113  78.3805993  42.3486493  14.1250113  77.9245993  42.7946493
  26.5000113  80.9375993  33.6006493  26.2800113  81.6685993  33.1786493
  26.0520113  80.9885993  34.3476493  26.4010113  81.0525993  33.6486493
  18.1090113  84.1395993  37.5816493  18.8220113  84.6345993  37.6716493
  18.3310113  83.5725993  36.9556493  18.2470113  84.1285993  37.5026493
  30.6870113  75.7985993  33.0536493  30.0250113  75.2305993  33.0766493
  30.4940113  76.3105993  32.3736493  30.5610113  75.7905993  32.9566493
  12.2650113  85.7825993  40.9016493  11.5980113  86.2705993  41.1776493
  12.9450113  86.3275993  40.9306493  12.2670113  85.9345993  40.9466493
  19.9120113  79.4925993  50.9976493  19.4280113  80.0695993  51.4396493
  19.8840113  79.7875993  50.1766493  19.8360113  79.6215993  50.9416493
  31.0100113  80.1765993  45.6096493  31.2250113  79.3765993  45.3336493
  30.1600113  80.2365993  45.4206493  30.9160113  80.0675993  45.5406493
  12.3310113  82.4665993  36.0046493  12.1460113  81.6275993  36.1566493
  12.9900113  82.4305993  35.4346493  12.4010113  82.3375993  35.9426493
  28.6890113  75.3565993  35.3326493  29.4350113  74.9495993  35.5316493
  28.9520113  76.0715993  34.9076493  28.8380113  75.4025993  35.2996493
  22.6320113  87.8425993  39.9086493  22.1090113  88.4765993  39.6156493
  22.9420113  87.4785993  39.1796493  22.6000113  87.8825993  39.7576493
  12.5030113  86.6305993  35.5796493  13.0550113  87.1995993  35.9436493
  12.2710113  86.1155993  36.2446493  12.5500113  86.6385993  35.7316493
  16.7070113  85.6305993  42.6686493  17.1740113  85.9195993  43.3466493
  17.2790113  85.1525993  42.2146493  16.8610113  85.6025993  42.7016493
  25.1430113  77.6445993  40.4056493  25.4870113  77.7965993  41.1926493
  24.6900113  76.9065993  40.5186493  25.1270113  77.5575993  40.5386493
  12.3330113  85.0795993  33.2076493  13.0890113  84.6475993  33.2656493
  12.3480113  85.6115993  33.8986493  12.4470113  85.0945993  33.3186493
  13.2730113  83.3005993  41.2126493  13.7040113  83.1715993  40.4656493
  13.0680113  84.1485993  41.1866493  13.3060113  83.4065993  41.0986493
  19.6190113  76.8645993  34.8626493  19.6170113  76.7475993  33.9976493
  19.4380113  77.7125993  34.9546493  19.5920113  76.9725993  34.7486493
  17.3570113  86.8165993  39.4946493  17.4830113  87.6595993  39.6816493
  18.0250113  86.4175993  39.8906493  17.4750113  86.8825993  39.5806493
  15.4870113  80.2995993  49.3566493  14.9510113  79.7935993  49.8246493
  15.5070113  79.9095993  48.5766493  15.4100113  80.1665993  49.3106493
  15.9720113  79.6965993  34.4966493  15.8440113  79.2485993  35.2346493
  15.3900113  79.3545993  33.9446493  15.8670113  79.5795993  34.5246493
  16.1390113  81.5265993  41.0956493  15.3580113  81.4675993  40.7126493
  16.2110113  80.7745993  41.5326493  16.0340113  81.4075993  41.1036493
  16.5690113  81.2635993  44.5636493  16.5940113  80.5885993  44.0126493
  15.9230113  81.7595993  44.2516493  16.4780113  81.2365993  44.4366493
  26.4640113  78.9765993  42.9596493  25.8020113  79.3045993  43.4226493
  26.6510113  79.6105993  42.3906493  26.3940113  79.1185993  42.9436493
  23.1090113  74.8825993  46.3886493  23.2580113  74.0575993  46.1456493
  23.4880113  74.9375993  47.1726493  23.1870113  74.7685993  46.4686493
  24.6570113  76.9455993  36.4706493  25.1470113  77.6625993  36.3936493
  23.8670113  77.2065993  36.2076493  24.6130113  77.0895993  36.4206493
  14.3680113  82.6185993  50.1226493  14.3310113  83.1195993  49.4086493
  14.6990113  81.8665993  49.8276493  14.4110113  82.5805993  49.9736493
  25.9710113  84.8235993  48.3806493  26.4550113  85.5415993  48.4786493
  26.3650113  84.3965993  47.7296493  26.1010113  84.8665993  48.2986493
  20.2670113  87.6685993  49.5576493  20.6210113  87.4905993  50.3346493
  19.8310113  86.9395993  49.3586493  20.2550113  87.5345993  49.6436493
  21.2390113  78.4155993  42.1956493  21.7190113  79.1145993  42.4036493
  21.6120113  77.7685993  42.6466493  21.3650113  78.4235993  42.2926493
  23.4280113  81.5845993  34.4696493  23.4200113  82.3065993  33.9796493
  22.7890113  81.7195993  35.0466493  23.3330113  81.7115993  34.4826493
  28.4000113  85.4545993  38.4506493  28.7560113  85.1045993  39.1656493
  28.3920113  84.7935993  37.8806493  28.4520113  85.3045993  38.4716493
  24.4450113  88.5205993  42.2946493  23.8420113  88.2245993  41.7376493
  24.9900113  88.9725993  41.7856493  24.4360113  88.5435993  42.1366493
  24.4580113  85.3715993  41.6946493  23.6610113  85.5955993  41.9686493
  24.7160113  84.7775993  42.2796493  24.3780113  85.3165993  41.8216493
  18.0210113  73.9265993  34.1306493  18.1180113  73.8195993  34.9916493
  17.3130113  74.4325993  34.0656493  17.9310113  73.9855993  34.2486493
  27.7180113  83.3695993  46.5406493  27.7730113  83.4945993  45.6786493
  28.4710113  83.6895993  46.8426493  27.8370113  83.4345993  46.4576493
  28.7500113  73.6675993  49.5276493  28.1130113  73.2675993  49.0856493
  28.7760113  73.2365993  50.2856493  28.6600113  73.5455993  49.5736493
  15.1430113  82.2335993  35.3736493  15.4670113  81.4545993  35.1516493
  15.7890113  82.6015993  35.8286493  15.2860113  82.1725993  35.4076493
  23.4490113  83.1755993  46.1406493  23.2940113  83.7855993  46.7446493
  23.9830113  82.6175993  46.5466493  23.5050113  83.1835993  46.2896493
  12.1400113  73.8945993  36.3416493  12.2690113  73.1865993  35.8496493
  11.7730113  73.5765993  37.0666493  12.1050113  73.7425993  36.3766493
  21.8330113  81.5755993  36.7986493  21.8920113  82.2255993  37.3776493
  21.6440113  80.8795993  37.2896493  21.8140113  81.5685993  36.9566493
  27.0590113  85.9045993  42.6676493  26.5800113  86.2025993  42.0016493
  26.7030113  85.1285993  42.8456493  26.9360113  85.8335993  42.5956493
  16.3290113  76.0925993  33.3106493  15.8180113  76.1455993  32.6046493
  17.1130113  76.3325993  33.0146493  16.3690113  76.1355993  33.1626493
  21.0560113  83.6225993  41.2296493  20.2090113  83.4285993  41.3106493
  21.3800113  83.4575993  42.0226493  20.9780113  83.5695993  41.3586493
  14.9040113  83.3155993  43.5456493  15.6260113  83.8035993  43.5086493
  14.6340113  83.2855993  42.7166493  14.9710113  83.3835993  43.4176493
  18.1340113  78.4865993  40.2806493  18.9800113  78.2965993  40.3786493
  17.7640113  77.7095993  40.1426493  18.2040113  78.3435993  40.2746493
  12.9550113  79.8245993  36.9356493  13.4440113  79.5325993  37.5966493
  13.0840113  79.2315993  36.3086493  13.0460113  79.6935993  36.9406493
  27.9900113  82.8465993  43.7866493  27.9830113  82.0705993  44.1846493
  27.1490113  83.0805993  43.7796493  27.8650113  82.7665993  43.8446493
  17.4800113  81.2585993  32.4216493  16.8700113  80.8535993  32.8956493
  17.0940113  81.3765993  31.6486493  17.3330113  81.2155993  32.3776493
  14.2990113  84.3675993  47.8236493  13.8780113  83.8495993  47.2626493
  13.9470113  85.1535993  47.6806493  14.1850113  84.4075993  47.7196493
  29.2460113  82.9175993  41.2236493  28.9600113  83.3185993  41.9436493
  30.1060113  82.8555993  41.3506493  29.3310113  82.9675993  41.3486493
  18.9350113  79.7195993  35.1316493  19.2070113  80.5455993  35.1986493
  18.0720113  79.7945993  35.0356493  18.8480113  79.8525993  35.1266493
  26.9080113  76.8415993  49.7636493  26.3830113  77.3005993  50.2876493
  26.5470113  76.0465993  49.7576493  26.7770113  76.7915993  49.8396493
  12.4150113  75.6895993  41.6676493  12.4590113  76.0335993  40.8666493
  13.1700113  75.9265993  42.0346493  12.5330113  75.7755993  41.6036493
  30.3770113  88.5505993  41.7526493  30.6670113  88.8075993  40.9716493
  31.0720113  88.6465993  42.2716493  30.5230113  88.6025993  41.7136493
  25.4000113  80.4105993  49.8396493  25.4730113  80.5145993  50.7026493
  24.7660113  80.9685993  49.6186493  25.3170113  80.5085993  49.9346493
  27.6680113  80.7295993  48.2046493  27.9870113  81.5155993  48.4076493
  27.2980113  80.4595993  48.9476493  27.6610113  80.8055993  48.3446493
  26.9820113  87.1535993  33.7346493  27.3160113  86.3475993  33.7696493
  26.2270113  87.0815993  34.1646493  26.9200113  87.0235993  33.8036493
  27.4640113  78.9875993  39.3936493  26.7190113  78.6645993  39.7116493
  27.4660113  79.8135993  39.6736493  27.3540113  79.0615993  39.4816493
  30.3660113  81.2715993  50.9396493  30.3140113  80.9305993  50.1386493
  31.1030113  81.7385993  50.9176493  30.4670113  81.2905993  50.8176493
  29.9040113  84.9475993  47.1456493  30.5320113  84.3985993  46.8896493
  29.8430113  85.5125993  46.4836493  29.9880113  84.9505993  47.0096493
  24.3560113  85.0285993  33.1376493  25.0400113  84.5145993  32.9686493
  23.9390113  85.0745993  32.3726493  24.3950113  84.9595993  32.9996493
  19.0380113  86.1785993  44.4416493  18.7400113  86.7705993  45.0086493
  19.0930113  86.6205993  43.6926493  19.0020113  86.3315993  44.4146493
  17.0170113  85.1285993  47.8396493  16.2110113  84.8385993  48.0066493
  16.9280113  85.9965993  47.8456493  16.8850113  85.2135993  47.8646493
  26.3760113  75.3175993  46.8546493  27.1200113  75.7695993  46.7916493
  25.8100113  75.7875993  46.3856493  26.4030113  75.4545993  46.7766493
  21.5540113  82.6015993  43.9326493  22.0300113  82.9755993  44.5606493
  20.7310113  82.7355993  44.1916493  21.5030113  82.6765993  44.0636493
  18.2640113  78.2045993  46.6736493  18.4250113  77.4605993  47.1006493
  18.2190113  77.9555993  45.8386493  18.2810113  78.0575993  46.6136493
  27.6610113  73.2975993  44.5246493  27.3810113  74.1225993  44.4806493
  28.3770113  73.3505993  45.0206493  27.7260113  73.4275993  44.5916493
  20.0160113  74.0125993  46.5536493  20.7210113  74.3325993  46.1516493
  20.2570113  73.2055993  46.7806493  20.1550113  73.9405993  46.5276493
  19.0010113  88.2225993  42.5496493  18.3770113  88.8045993  42.3676493
  19.2490113  87.9365993  41.7636493  18.9450113  88.2665993  42.4066493
  23.3100113  84.8565993  49.5386493  24.0670113  85.1425993  49.2126493
  22.7630113  84.9085993  48.8606493  23.3410113  84.9065993  49.3896493
  27.2190113  87.4065993  48.0426493  27.5650113  87.6765993  48.7966493
  27.5130113  87.9885993  47.4626493  27.3140113  87.5325993  48.0686493
  29.0820113  79.5525993  33.3816493  29.4600113  80.2295993  32.9816493
  28.2400113  79.7765993  33.4126493  29.0130113  79.6855993  33.3266493
  20.5950113  82.9985993  32.4646493  19.7900113  82.8215993  32.1796493
  20.5620113  83.8495993  32.6566493  20.4710113  83.0975993  32.4516493
  16.5250113  79.0655993  42.6146493  16.9650113  78.9625993  41.8686493
  17.0700113  78.7525993  43.2196493  16.6700113  79.0045993  42.5936493
  24.5410113  78.1675993  48.2066493  23.8930113  78.6375993  48.5546493
  25.1060113  78.0785993  48.8656493  24.5290113  78.2235993  48.3556493
  24.2290113  79.7045993  44.5046493  24.5310113  80.1245993  45.2076493
  24.2650113  78.8645993  44.7366493  24.2790113  79.6425993  44.6426493
  26.7770113  79.1515993  36.7566493  26.9840113  78.9505993  37.5806493
  27.5330113  79.4195993  36.4146493  26.9190113  79.1615993  36.8276493
  20.0720113  74.0505993  42.6616493  19.2460113  73.9015993  42.8986493
  20.0320113  74.0855993  41.7906493  19.9440113  74.0335993  42.5676493
  27.7990113  75.2345993  38.2306493  27.0850113  74.7635993  38.4016493
  27.6370113  75.5755993  37.4446493  27.6700113  75.2155993  38.1396493
  28.2420113  83.1785993  36.6106493  28.7180113  82.4495993  36.5626493
  27.4210113  82.8925993  36.5346493  28.1910113  83.0285993  36.5916493
  21.7130113  85.0905993  47.4496493  20.9180113  85.0265993  47.8006493
  21.7840113  85.9375993  47.2546493  21.6060113  85.2055993  47.4726493
  12.6370113  74.4485993  48.6966493  12.4970113  75.2435993  48.3656493
  11.8510113  74.2055993  48.9856493  12.5000113  74.5305993  48.6906493
  15.7010113  77.1925993  35.9216493  15.8270113  76.8635993  35.1236493
  14.8890113  76.9435993  36.1206493  15.6000113  77.1075993  35.8336493
  24.4580113  84.3455993  38.9656493  24.5340113  84.6865993  39.7646493
  24.6270113  83.4985993  39.0866493  24.4940113  84.2705993  39.1016493
  21.9800113  83.6195993  38.5306493  21.6820113  83.3045993  39.2876493
  22.6750113  84.0925993  38.7656493  22.0390113  83.6425993  38.6776493
  22.2020113  87.7375993  46.5576493  22.8890113  87.6235993  47.0826493
  22.3360113  88.5285993  46.2136493  22.3230113  87.8375993  46.5846493
  30.3780113  80.3465993  48.3686493  29.5230113  80.2245993  48.4946493
  30.5310113  79.9515993  47.6056493  30.2740113  80.2695993  48.2746493
  24.8910113  81.0115993  46.9446493  24.6360113  80.2925993  47.3666493
  25.7120113  81.1275993  47.2146493  24.9750113  80.9225993  47.0466493
  22.8250113  82.2015993  50.1316493  23.1480113  82.8875993  49.6996493
  22.1210113  82.5245993  50.5336493  22.7680113  82.3505993  50.1266493
  22.6100113  85.6655993  43.9906493  21.9160113  86.0675993  44.3336493
  23.2870113  86.0985993  44.3296493  22.6070113  85.7885993  44.0916493
  27.9870113  88.2585993  50.5706493  28.7630113  87.8685993  50.6536493
  27.5180113  87.9225993  51.2256493  28.0320113  88.1515993  50.6796493
  15.6780113  79.2035993  46.3376493  16.0530113  79.8225993  45.8506493
  16.3520113  78.7295993  46.6226493  15.8330113  79.2255993  46.3076493
  13.4530113  77.6515993  45.6126493  13.5300113  77.4825993  44.7596493
  14.1990113  78.0575993  45.8096493  13.5740113  77.6865993  45.5156493
  29.0120113  80.2915993  36.0526493  29.1150113  80.2335993  35.1886493
  29.7530113  79.9595993  36.3706493  29.1370113  80.2345993  35.9716493
  16.0070113  75.0615993  48.0236493  15.9260113  74.2175993  48.2296493
  15.6930113  75.1055993  47.2106493  15.9490113  74.9435993  47.9336493
  22.9320113  87.2565993  37.1596493  22.7270113  88.0895993  37.0006493
  22.1570113  86.8745993  37.2816493  22.7870113  87.3235993  37.1546493
  28.1140113  80.4375993  45.4086493  28.1120113  79.5745993  45.5326493
  28.1810113  80.7615993  46.2156493  28.1240113  80.3575993  45.5456493
  12.8500113  82.8775993  45.8366493  13.1700113  83.0965993  45.0556493
  12.7500113  82.0125993  45.7816493  12.8820113  82.7825993  45.7136493
  14.3060113  78.8135993  32.4546493  13.6340113  78.8275993  33.0106493
  14.4010113  77.9655993  32.2706493  14.2210113  78.6905993  32.5096493
  23.9930113  75.2375993  49.1906493  24.0850113  75.9495993  49.6846493
  23.3560113  74.7925993  49.5876493  23.9120113  75.2765993  49.3226493
  22.9870113  75.4275993  40.0446493  22.2870113  75.9455993  39.9886493
  23.0250113  75.0475993  39.2606493  22.8890113  75.4485993  39.9206493
  18.2940113  87.5185993  33.5686493  18.7350113  87.5985993  34.3166493
  17.4890113  87.3025993  33.8266493  18.2400113  87.4985993  33.7176493
  26.5850113  75.9435993  42.8446493  27.4400113  76.0425993  42.9896493
  26.2160113  76.4965993  43.4096493  26.6570113  76.0405993  42.9496493
  17.6130113  82.1695993  47.2216493  17.2170113  82.9435993  47.2966493
  17.2070113  81.7965993  46.5456493  17.4950113  82.2285993  47.1326493
  26.8890113  81.2235993  41.3356493  27.5550113  81.7645993  41.4956493
  26.5440113  81.5345993  40.5966493  26.9360113  81.3495993  41.2506493
  15.6230113  86.5885993  34.1696493  15.3790113  86.2815993  34.9496493
  15.5900113  85.8855993  33.6536493  15.5820113  86.4395993  34.2086493
  18.4420113  84.8335993  32.9126493  17.6240113  84.5655993  33.0526493
  18.4140113  85.6855993  33.0976493  18.3170113  84.9205993  32.9606493
  18.0420113  75.1465993  44.6716493  17.1780113  75.2305993  44.7516493
  18.2620113  74.6325993  45.3406493  17.9470113  75.0835993  44.7826493
  30.0600113  73.7815993  46.0006493  30.0080113  73.7375993  46.8706493
  30.7470113  73.2785993  45.8106493  30.1540113  73.7015993  46.1006493
  22.1450113  75.8945993  43.0456493  21.4080113  75.4405993  43.1586493
  22.7160113  75.4925993  43.5686493  22.1200113  75.7675993  43.1396493
  24.8770113  86.7425993  44.8336493  25.0830113  87.0435993  45.6256493
  24.8160113  87.4645993  44.3486493  24.8980113  86.8935993  44.8786493
  19.6480113  80.2235993  48.2496493  19.3260113  79.6475993  47.6796493
  19.2890113  80.9785993  48.0036493  19.5480113  80.2495993  48.1296493
  20.4440113  73.4755993  32.8766493  20.5220113  73.7225993  32.0436493
  19.7010113  73.8525993  33.1346493  20.3460113  73.5675993  32.7916493
  29.6890113  85.3815993  44.2916493  29.6570113  84.5195993  44.1566493
  28.9960113  85.6835993  43.8576493  29.5820113  85.2985993  44.2076493
  27.7940113  88.6415993  43.0886493  28.3210113  88.5585993  42.3976493
  27.4030113  87.8635993  43.1426493  27.8140113  88.5145993  42.9946493
  15.2620113  75.2295993  45.3196493  14.9190113  74.4625993  45.0856493
  14.5670113  75.7535993  45.3836493  15.1090113  75.1935993  45.2946493
  24.3080113  74.0855993  42.2966493  24.9780113  74.6295993  42.4236493
  23.8050113  74.5095993  41.7236493  24.3330113  74.2285993  42.2306493
  23.6670113  79.8935993  39.7896493  24.2180113  79.2865993  40.0896493
  23.2420113  80.1565993  40.5046493  23.6860113  79.8425993  39.9386493
  13.9150113  78.5435993  39.2756493  13.5470113  78.8455993  40.0066493
  14.4490113  77.9145993  39.5596493  13.9390113  78.4955993  39.4256493
  13.6030113  86.9515993  46.7866493  13.0290113  87.3675993  47.2956493
  14.3360113  87.4165993  46.8816493  13.6270113  87.0815993  46.8756493
  25.6370113  81.7245993  36.3516493  25.7050113  80.8745993  36.5326493
  24.8140113  81.8105993  36.0736493  25.5250113  81.6115993  36.3376493
  19.5560113  82.6155993  35.2896493  19.6560113  82.7545993  34.4346493
  20.3740113  82.5555993  35.5856493  19.6910113  82.6265993  35.2066493
  28.9110113  83.0975993  49.5026493  29.5450113  82.9275993  50.0766493
  29.3280113  83.5005993  48.8506493  29.0660113  83.1325993  49.4916493
  24.7910113  86.9445993  35.0916493  24.5400113  86.8165993  35.9176493
  24.4740113  86.2495993  34.6706493  24.7070113  86.8235993  35.1516493
  29.5360113  77.6615993  50.2406493  29.3400113  78.3055993  50.7956493
  28.8140113  77.1715993  50.2326493  29.4010113  77.6845993  50.3216493
  29.4350113  78.6025993  43.2116493  28.6020113  78.8525993  43.1396493
  29.3790113  77.7625993  43.4406493  29.3040113  78.5155993  43.2346493
  18.6950113  75.5905993  48.4056493  18.9290113  75.0145993  47.7926493
  17.8530113  75.4095993  48.5466493  18.6050113  75.4785993  48.3356493
  26.3220113  83.2085993  50.8576493  27.1930113  83.1725993  50.8216493
  26.1030113  83.6285993  50.1256493  26.4190113  83.2645993  50.7446493
  21.6770113  85.1525993  34.5216493  22.3940113  84.8055993  34.1656493
  21.6430113  85.9525993  34.1736493  21.7780113  85.2195993  34.4176493
  23.0860113  73.7935993  18.7604083  22.8410113  74.2815993  18.0804083
  23.9490113  73.7205993  18.6604083  23.1770113  73.8545993  18.6454083
  22.8950113  80.7095993  23.4314083  22.3710113  81.3055993  23.7944083
  23.2920113  80.3415993  24.1154083  22.8760113  80.7435993  23.5864083
  12.7640113  84.8495993  18.8874083  12.3230113  84.9675993  19.6304083
  12.4810113  84.0745993  18.6024083  12.6570113  84.7525993  18.9554083
  29.0390113  88.1505993  16.4024083  29.7400113  87.6315993  16.3984083
  28.4520113  87.7055993  15.9334083  29.0560113  88.0075993  16.3324083
  12.5070113  78.6415993  15.3944083  11.7290113  78.8035993  15.0344083
  12.5460113  77.7705993  15.4164083  12.3980113  78.5365993  15.3444083
  15.6460113  83.9045993  14.0664083  15.2540113  83.5335993  13.3804083
  15.5660113  83.3065993  14.6954083  15.5760113  83.7615993  14.0574083
  25.5660113  81.7765993  20.1074083  25.6460113  81.7805993  19.2384083
  24.9820113  81.1445993  20.2564083  25.4910113  81.6835993  20.0014083
  15.2730113  85.5455993  17.9664083  15.8810113  85.3755993  18.5694083
  14.5220113  85.4055993  18.3874083  15.2520113  85.4995993  18.1174083
  19.5550113  74.8805993  17.9154083  19.4850113  75.5575993  17.3694083
  20.2960113  74.4925993  17.6664083  19.6540113  74.9235993  17.7974083
  14.1640113  88.6365993  14.0434083  14.6310113  88.7205993  13.3114083
  14.6190113  88.0585993  14.5124083  14.3000113  88.5635993  14.0044083
  12.7040113  87.5845993  25.1424083  12.8330113  87.3045993  25.9584083
  12.0940113  87.0435993  24.8334083  12.6330113  87.4635993  25.2174083
  19.2780113  85.1095993  30.2094083  19.0420113  85.1065993  31.0494083
  18.5300113  84.9615993  29.7854083  19.1320113  85.0865993  30.2704083
  14.1500113  82.1055993  19.3444083  13.6880113  81.7135993  18.7174083
  14.8500113  81.5925993  19.4364083  14.1850113  81.9725993  19.2654083
  18.6580113  77.7155993  24.6914083  19.3360113  77.7335993  24.1424083
  18.6130113  76.8795993  24.9364083  18.7510113  77.5945993  24.6464083
  19.2600113  88.3015993  27.4724083  19.3980113  89.0615993  27.0654083
  20.0510113  87.9365993  27.4994083  19.3970113  88.3605993  27.4164083
  16.1510113  80.2055993  19.3674083  16.9680113  80.0185993  19.6104083
  15.6740113  79.5915993  19.7634083  16.2010113  80.0875993  19.4624083
  20.3550113  86.1865993  21.9774083  20.7030113  85.3875993  22.0074083
  21.0200113  86.6905993  21.7224083  20.5050113  86.1425993  21.9444083
  20.4120113  85.6355993  18.1884083  20.7430113  84.9915993  18.6744083
  20.6520113  85.4245993  17.3774083  20.4960113  85.5095993  18.1404083
  22.3800113  79.7665993  29.5274083  21.5320113  79.6675993  29.3494083
  22.4090113  80.5115993  29.9814083  22.2590113  79.8625993  29.5684083
  16.7480113  75.2995993  18.6334083  16.4520113  75.8005993  17.9834083
  17.6150113  75.3775993  18.5764083  16.8320113  75.3855993  18.5294083
  26.9380113  72.7265993  28.6414083  26.7800113  73.4955993  28.2594083
  26.1660113  72.5065993  28.9854083  26.8000113  72.8075993  28.6364083
  19.7270113  74.4415993  20.8564083  19.8000113  75.3015993  20.9854083
  19.6890113  74.3665993  19.9884083  19.7320113  74.5575993  20.7474083
  24.4000113  77.3675993  13.1554083  23.9500113  78.0485993  13.4624083
  24.5140113  76.8635993  13.8584083  24.3510113  77.3935993  13.3044083
  12.6060113  79.8665993  22.3574083  12.3500113  80.6975993  22.2824083
  11.9420113  79.4835993  22.7744083  12.4700113  79.9325993  22.4084083
  18.3560113  87.4205993  17.7374083  17.7770113  87.1455993  18.3294083
  18.9800113  86.8115993  17.7624083  18.3630113  87.2905993  17.8284083
  15.6350113  74.6835993  22.8484083  15.1140113  74.0555993  22.5404083
  16.2260113  74.2465993  23.3194083  15.6460113  74.5255993  22.8724083
  18.9410113  76.8165993  32.1464083  19.0580113  76.3625993  31.4104083
  19.2290113  77.6145993  31.9434083  19.0010113  76.8675993  32.0074083
  14.0610113  88.2465993  18.1884083  14.7170113  87.6715993  18.2034083
  14.4500113  88.9955993  17.9674083  14.2160113  88.2715993  18.1584083
  29.7940113  77.3405993  19.4504083  29.4480113  78.0185993  19.8764083
  29.1580113  76.7425993  19.4664083  29.6490113  77.3525993  19.5154083
  14.6740113  76.4135993  31.1304083  13.8960113  76.0235993  31.0584083
  15.1650113  76.0015993  30.5394083  14.6310113  76.2945993  31.0324083
  14.8790113  86.7335993  21.6884083  15.3020113  86.3775993  21.0144083
  15.2030113  86.3115993  22.3804083  14.9890113  86.6185993  21.6914083
  21.3230113  74.0565993  30.2984083  21.5010113  73.2475993  30.0234083
  21.1800113  74.4975993  29.5594083  21.3280113  74.0025993  30.1484083
  21.9170113  78.9825993  19.0714083  22.2040113  78.7505993  18.2814083
  22.6490113  79.0615993  19.5404083  22.0670113  78.9595993  19.0244083
  22.6390113  79.3215993  14.1924083  22.9200113  80.1095993  14.4414083
  21.8630113  79.4865993  13.8294083  22.5660113  79.4625993  14.1754083
  29.4690113  75.6635993  24.8194083  30.2260113  75.7355993  24.3914083
  29.5320113  74.8905993  25.2184083  29.5900113  75.5605993  24.8144083
  12.0220113  76.9615993  28.7164083  12.0180113  77.5485993  29.3624083
  12.6160113  77.2735993  28.1594083  12.1090113  77.0945993  28.7294083
  24.3600113  87.2955993  29.2584083  24.3260113  87.6775993  30.0424083
  25.2140113  87.2535993  29.0874083  24.4810113  87.3455993  29.3494083
  21.4980113  87.4925993  14.0084083  21.3170113  88.0375993  14.6654083
  22.2640113  87.7825993  13.7074083  21.5840113  87.6165993  14.0614083
  25.0050113  75.3885993  15.0624083  25.5450113  74.7065993  15.1384083
  25.0670113  75.7865993  15.8364083  25.0940113  75.3465993  15.1884083
  12.9590113  76.5565993  17.6314083  12.8450113  75.6925993  17.6624083
  12.4840113  76.8505993  18.3014083  12.8720113  76.4725993  17.7344083
  15.1010113  88.9665993  25.8464083  14.4030113  88.4585993  25.9724083
  15.3610113  88.7615993  25.0384083  15.0360113  88.8615993  25.7454083
  22.2630113  77.7645993  16.3764083  21.7550113  77.1025993  16.1224083
  22.3150113  78.2685993  15.6664083  22.1960113  77.7415993  16.2344083
  22.2630113  74.7055993  16.2674083  21.8080113  74.3035993  15.6414083
  23.0360113  74.8605993  15.8924083  22.3100113  74.6695993  16.1194083
  20.8610113  77.0725993  20.7894083  20.9350113  77.6405993  20.1314083
  20.9820113  77.5645993  21.4994083  20.8890113  77.2295993  20.7974083
  26.0860113  86.9075993  19.2014083  26.7870113  86.4255993  19.3904083
  25.4260113  86.3385993  19.2464083  26.0920113  86.7525993  19.2354083
  16.4620113  87.8175993  28.4134083  17.3030113  87.8805993  28.1914083
  16.4250113  88.2145993  29.1894083  16.5810113  87.8855993  28.4954083
  15.4690113  72.8955993  19.1374083  16.0050113  73.5835993  19.1274083
  15.4720113  72.6215993  18.3094083  15.5480113  72.9565993  19.0134083
  18.4250113  83.3285993  23.1624083  18.5970113  83.1185993  23.9914083
  17.7700113  82.7945993  22.9464083  18.3540113  83.2185993  23.2534083
  24.6530113  77.2425993  26.6774083  24.5580113  77.5615993  27.4834083
  24.0600113  76.6035993  26.6394083  24.5510113  77.1945993  26.7914083
  19.1750113  83.2665993  25.7524083  19.2280113  84.1135993  25.9544083
  18.8900113  82.8965993  26.4894083  19.1410113  83.3365993  25.8904083
  25.3520113  83.9615993  24.8824083  24.8380113  83.5495993  25.4534083
  25.2260113  84.8055993  25.0634083  25.2580113  84.0255993  24.9934083
  25.9090113  73.1865993  19.5134083  25.9580113  72.8685993  20.3244083
  26.2320113  72.5425993  19.0204083  25.9640113  73.0445993  19.5604083
  11.9960113  87.6375993  31.9634083  12.7520113  87.9865993  32.2214083
  12.1730113  86.7845993  31.9064083  12.1340113  87.5625993  31.9934083
  28.3730113  77.4225993  27.8214083  29.1450113  77.1975993  28.1584083
  27.8980113  77.6395993  28.5214083  28.4170113  77.4215993  27.9744083
  15.9170113  76.7055993  20.7914083  16.1890113  76.2755993  20.0834083
  15.7410113  76.0695993  21.3624083  15.9310113  76.5485993  20.7714083
  28.6050113  84.4005993  15.0094083  28.7240113  84.1135993  15.8244083
  29.4120113  84.4215993  14.6794083  28.7410113  84.3615993  15.0814083
  15.7410113  84.1325993  20.3404083  16.5920113  84.0525993  20.1674083
  15.3840113  83.4505993  19.9284083  15.8140113  84.0195993  20.2534083
  14.0580113  77.8075993  23.8734083  14.9010113  78.0275993  23.8304083
  13.6690113  78.3805993  23.3424083  14.1250113  77.9245993  23.7884083
  26.5000113  80.9375993  14.5944083  26.2800113  81.6685993  14.1724083
  26.0520113  80.9885993  15.3414083  26.4010113  81.0525993  14.6424083
  18.1090113  84.1395993  18.5754083  18.8220113  84.6345993  18.6654083
  18.3310113  83.5725993  17.9494083  18.2470113  84.1285993  18.4964083
  30.6870113  75.7985993  14.0474083  30.0250113  75.2305993  14.0704083
  30.4940113  76.3105993  13.3674083  30.5610113  75.7905993  13.9504083
  12.2650113  85.7825993  21.8954083  11.5980113  86.2705993  22.1714083
  12.9450113  86.3275993  21.9244083  12.2670113  85.9345993  21.9404083
  19.9120113  79.4925993  31.9914083  19.4280113  80.0695993  32.4334083
  19.8840113  79.7875993  31.1704083  19.8360113  79.6215993  31.9354083
  31.0100113  80.1765993  26.6034083  31.2250113  79.3765993  26.3274083
  30.1600113  80.2365993  26.4144083  30.9160113  80.0675993  26.5344083
  12.3310113  82.4665993  16.9984083  12.1460113  81.6275993  17.1504083
  12.9900113  82.4305993  16.4284083  12.4010113  82.3375993  16.9364083
  28.6890113  75.3565993  16.3264083  29.4350113  74.9495993  16.5254083
  28.9520113  76.0715993  15.9014083  28.8380113  75.4025993  16.2934083
  22.6320113  87.8425993  20.9024083  22.1090113  88.4765993  20.6094083
  22.9420113  87.4785993  20.1734083  22.6000113  87.8825993  20.7514083
  12.5030113  86.6305993  16.5734083  13.0550113  87.1995993  16.9374083
  12.2710113  86.1155993  17.2384083  12.5500113  86.6385993  16.7254083
  16.7070113  85.6305993  23.6624083  17.1740113  85.9195993  24.3404083
  17.2790113  85.1525993  23.2084083  16.8610113  85.6025993  23.6954083
  25.1430113  77.6445993  21.3994083  25.4870113  77.7965993  22.1864083
  24.6900113  76.9065993  21.5124083  25.1270113  77.5575993  21.5324083
  12.3330113  85.0795993  14.2014083  13.0890113  84.6475993  14.2594083
  12.3480113  85.6115993  14.8924083  12.4470113  85.0945993  14.3124083
  13.2730113  83.3005993  22.2064083  13.7040113  83.1715993  21.4594083
  13.0680113  84.1485993  22.1804083  13.3060113  83.4065993  22.0924083
  19.6190113  76.8645993  15.8564083  19.6170113  76.7475993  14.9914083
  19.4380113  77.7125993  15.9484083  19.5920113  76.9725993  15.7424083
  17.3570113  86.8165993  20.4884083  17.4830113  87.6595993  20.6754083
  18.0250113  86.4175993  20.8844083  17.4750113  86.8825993  20.5744083
  15.4870113  80.2995993  30.3504083  14.9510113  79.7935993  30.8184083
  15.5070113  79.9095993  29.5704083  15.4100113  80.1665993  30.3044083
  15.9720113  79.6965993  15.4904083  15.8440113  79.2485993  16.2284083
  15.3900113  79.3545993  14.9384083  15.8670113  79.5795993  15.5184083
  16.1390113  81.5265993  22.0894083  15.3580113  81.4675993  21.7064083
  16.2110113  80.7745993  22.5264083  16.0340113  81.4075993  22.0974083
  16.5690113  81.2635993  25.5574083  16.5940113  80.5885993  25.0064083
  15.9230113  81.7595993  25.2454083  16.4780113  81.2365993  25.4304083
  26.4640113  78.9765993  23.9534083  25.8020113  79.3045993  24.4164083
  26.6510113  79.6105993  23.3844083  26.3940113  79.1185993  23.9374083
  23.1090113  74.8825993  27.3824083  23.2580113  74.0575993  27.1394083
  23.4880113  74.9375993  28.1664083  23.1870113  74.7685993  27.4624083
  24.6570113  76.9455993  17.4644083  25.1470113  77.6625993  17.3874083
  23.8670113  77.2065993  17.2014083  24.6130113  77.0895993  17.4144083
  14.3680113  82.6185993  31.1164083  14.3310113  83.1195993  30.4024083
  14.6990113  81.8665993  30.8214083  14.4110113  82.5805993  30.9674083
  25.9710113  84.8235993  29.3744083  26.4550113  85.5415993  29.4724083
  26.3650113  84.3965993  28.7234083  26.1010113  84.8665993  29.2924083
  20.2670113  87.6685993  30.5514083  20.6210113  87.4905993  31.3284083
  19.8310113  86.9395993  30.3524083  20.2550113  87.5345993  30.6374083
  21.2390113  78.4155993  23.1894083  21.7190113  79.1145993  23.3974083
  21.6120113  77.7685993  23.6404083  21.3650113  78.4235993  23.2864083
  23.4280113  81.5845993  15.4634083  23.4200113  82.3065993  14.9734083
  22.7890113  81.7195993  16.0404083  23.3330113  81.7115993  15.4764083
  28.4000113  85.4545993  19.4444083  28.7560113  85.1045993  20.1594083
  28.3920113  84.7935993  18.8744083  28.4520113  85.3045993  19.4654083
  24.4450113  88.5205993  23.2884083  23.8420113  88.2245993  22.7314083
  24.9900113  88.9725993  22.7794083  24.4360113  88.5435993  23.1304083
  24.4580113  85.3715993  22.6884083  23.6610113  85.5955993  22.9624083
  24.7160113  84.7775993  23.2734083  24.3780113  85.3165993  22.8154083
  18.0210113  73.9265993  15.1244083  18.1180113  73.8195993  15.9854083
  17.3130113  74.4325993  15.0594083  17.9310113  73.9855993  15.2424083
  27.7180113  83.3695993  27.5344083  27.7730113  83.4945993  26.6724083
  28.4710113  83.6895993  27.8364083  27.8370113  83.4345993  27.4514083
  28.7500113  73.6675993  30.5214083  28.1130113  73.2675993  30.0794083
  28.7760113  73.2365993  31.2794083  28.6600113  73.5455993  30.5674083
  15.1430113  82.2335993  16.3674083  15.4670113  81.4545993  16.1454083
  15.7890113  82.6015993  16.8224083  15.2860113  82.1725993  16.4014083
  23.4490113  83.1755993  27.1344083  23.2940113  83.7855993  27.7384083
  23.9830113  82.6175993  27.5404083  23.5050113  83.1835993  27.2834083
  12.1400113  73.8945993  17.3354083  12.2690113  73.1865993  16.8434083
  11.7730113  73.5765993  18.0604083  12.1050113  73.7425993  17.3704083
  21.8330113  81.5755993  17.7924083  21.8920113  82.2255993  18.3714083
  21.6440113  80.8795993  18.2834083  21.8140113  81.5685993  17.9504083
  27.0590113  85.9045993  23.6614083  26.5800113  86.2025993  22.9954083
  26.7030113  85.1285993  23.8394083  26.9360113  85.8335993  23.5894083
  16.3290113  76.0925993  14.3044083  15.8180113  76.1455993  13.5984083
  17.1130113  76.3325993  14.0084083  16.3690113  76.1355993  14.1564083
  21.0560113  83.6225993  22.2234083  20.2090113  83.4285993  22.3044083
  21.3800113  83.4575993  23.0164083  20.9780113  83.5695993  22.3524083
  14.9040113  83.3155993  24.5394083  15.6260113  83.8035993  24.5024083
  14.6340113  83.2855993  23.7104083  14.9710113  83.3835993  24.4114083
  18.1340113  78.4865993  21.2744083  18.9800113  78.2965993  21.3724083
  17.7640113  77.7095993  21.1364083  18.2040113  78.3435993  21.2684083
  12.9550113  79.8245993  17.9294083  13.4440113  79.5325993  18.5904083
  13.0840113  79.2315993  17.3024083  13.0460113  79.6935993  17.9344083
  27.9900113  82.8465993  24.7804083  27.9830113  82.0705993  25.1784083
  27.1490113  83.0805993  24.7734083  27.8650113  82.7665993  24.8384083
  17.4800113  81.2585993  13.4154083  16.8700113  80.8535993  13.8894083
  17.0940113  81.3765993  12.6424083  17.3330113  81.2155993  13.3714083
  14.2990113  84.3675993  28.8174083  13.8780113  83.8495993  28.2564083
  13.9470113  85.1535993  28.6744083  14.1850113  84.4075993  28.7134083
  29.2460113  82.9175993  22.2174083  28.9600113  83.3185993  22.9374083
  30.1060113  82.8555993  22.3444083  29.3310113  82.9675993  22.3424083
  18.9350113  79.7195993  16.1254083  19.2070113  80.5455993  16.1924083
  18.0720113  79.7945993  16.0294083  18.8480113  79.8525993  16.1204083
  26.9080113  76.8415993  30.7574083  26.3830113  77.3005993  31.2814083
  26.5470113  76.0465993  30.7514083  26.7770113  76.7915993  30.8334083
  12.4150113  75.6895993  22.6614083  12.4590113  76.0335993  21.8604083
  13.1700113  75.9265993  23.0284083  12.5330113  75.7755993  22.5974083
  30.3770113  88.5505993  22.7464083  30.6670113  88.8075993  21.9654083
  31.0720113  88.6465993  23.2654083  30.5230113  88.6025993  22.7074083
  25.4000113  80.4105993  30.8334083  25.4730113  80.5145993  31.6964083
  24.7660113  80.9685993  30.6124083  25.3170113  80.5085993  30.9284083
  27.6680113  80.7295993  29.1984083  27.9870113  81.5155993  29.4014083
  27.2980113  80.4595993  29.9414083  27.6610113  80.8055993  29.3384083
  26.9820113  87.1535993  14.7284083  27.3160113  86.3475993  14.7634083
  26.2270113  87.0815993  15.1584083  26.9200113  87.0235993  14.7974083
  27.4640113  78.9875993  20.3874083  26.7190113  78.6645993  20.7054083
  27.4660113  79.8135993  20.6674083  27.3540113  79.0615993  20.4754083
  30.3660113  81.2715993  31.9334083  30.3140113  80.9305993  31.1324083
  31.1030113  81.7385993  31.9114083  30.4670113  81.2905993  31.8114083
  29.9040113  84.9475993  28.1394083  30.5320113  84.3985993  27.8834083
  29.8430113  85.5125993  27.4774083  29.9880113  84.9505993  28.0034083
  24.3560113  85.0285993  14.1314083  25.0400113  84.5145993  13.9624083
  23.9390113  85.0745993  13.3664083  24.3950113  84.9595993  13.9934083
  19.0380113  86.1785993  25.4354083  18.7400113  86.7705993  26.0024083
  19.0930113  86.6205993  24.6864083  19.0020113  86.3315993  25.4084083
  17.0170113  85.1285993  28.8334083  16.2110113  84.8385993  29.0004083
  16.9280113  85.9965993  28.8394083  16.8850113  85.2135993  28.8584083
  26.3760113  75.3175993  27.8484083  27.1200113  75.7695993  27.7854083
  25.8100113  75.7875993  27.3794083  26.4030113  75.4545993  27.7704083
  21.5540113  82.6015993  24.9264083  22.0300113  82.9755993  25.5544083
  20.7310113  82.7355993  25.1854083  21.5030113  82.6765993  25.0574083
  18.2640113  78.2045993  27.6674083  18.4250113  77.4605993  28.0944083
  18.2190113  77.9555993  26.8324083  18.2810113  78.0575993  27.6074083
  27.6610113  73.2975993  25.5184083  27.3810113  74.1225993  25.4744083
  28.3770113  73.3505993  26.0144083  27.7260113  73.4275993  25.5854083
  20.0160113  74.0125993  27.5474083  20.7210113  74.3325993  27.1454083
  20.2570113  73.2055993  27.7744083  20.1550113  73.9405993  27.5214083
  19.0010113  88.2225993  23.5434083  18.3770113  88.8045993  23.3614083
  19.2490113  87.9365993  22.7574083  18.9450113  88.2665993  23.4004083
  23.3100113  84.8565993  30.5324083  24.0670113  85.1425993  30.2064083
  22.7630113  84.9085993  29.8544083  23.3410113  84.9065993  30.3834083
  27.2190113  87.4065993  29.0364083  27.5650113  87.6765993  29.7904083
  27.5130113  87.9885993  28.4564083  27.3140113  87.5325993  29.0624083
  29.0820113  79.5525993  14.3754083  29.4600113  80.2295993  13.9754083
  28.2400113  79.7765993  14.4064083  29.0130113  79.6855993  14.3204083
  20.5950113  82.9985993  13.4584083  19.7900113  82.8215993  13.1734083
  20.5620113  83.8495993  13.6504083  20.4710113  83.0975993  13.4454083
  16.5250113  79.0655993  23.6084083  16.9650113  78.9625993  22.8624083
  17.0700113  78.7525993  24.2134083  16.6700113  79.0045993  23.5874083
  24.5410113  78.1675993  29.2004083  23.8930113  78.6375993  29.5484083
  25.1060113  78.0785993  29.8594083  24.5290113  78.2235993  29.3494083
  24.2290113  79.7045993  25.4984083  24.5310113  80.1245993  26.2014083
  24.2650113  78.8645993  25.7304083  24.2790113  79.6425993  25.6364083
  26.7770113  79.1515993  17.7504083  26.9840113  78.9505993  18.5744083
  27.5330113  79.4195993  17.4084083  26.9190113  79.1615993  17.8214083
  20.0720113  74.0505993  23.6554083  19.2460113  73.9015993  23.8924083
  20.0320113  74.0855993  22.7844083  19.9440113  74.0335993  23.5614083
  27.7990113  75.2345993  19.2244083  27.0850113  74.7635993  19.3954083
  27.6370113  75.5755993  18.4384083  27.6700113  75.2155993  19.1334083
  28.2420113  83.1785993  17.6044083  28.7180113  82.4495993  17.5564083
  27.4210113  82.8925993  17.5284083  28.1910113  83.0285993  17.5854083
  21.7130113  85.0905993  28.4434083  20.9180113  85.0265993  28.7944083
  21.7840113  85.9375993  28.2484083  21.6060113  85.2055993  28.4664083
  12.6370113  74.4485993  29.6904083  12.4970113  75.2435993  29.3594083
  11.8510113  74.2055993  29.9794083  12.5000113  74.5305993  29.6844083
  15.7010113  77.1925993  16.9154083  15.8270113  76.8635993  16.1174083
  14.8890113  76.9435993  17.1144083  15.6000113  77.1075993  16.8274083
  24.4580113  84.3455993  19.9594083  24.5340113  84.6865993  20.7584083
  24.6270113  83.4985993  20.0804083  24.4940113  84.2705993  20.0954083
  21.9800113  83.6195993  19.5244083  21.6820113  83.3045993  20.2814083
  22.6750113  84.0925993  19.7594083  22.0390113  83.6425993  19.6714083
  22.2020113  87.7375993  27.5514083  22.8890113  87.6235993  28.0764083
  22.3360113  88.5285993  27.2074083  22.3230113  87.8375993  27.5784083
  30.3780113  80.3465993  29.3624083  29.5230113  80.2245993  29.4884083
  30.5310113  79.9515993  28.5994083  30.2740113  80.2695993  29.2684083
  24.8910113  81.0115993  27.9384083  24.6360113  80.2925993  28.3604083
  25.7120113  81.1275993  28.2084083  24.9750113  80.9225993  28.0404083
  22.8250113  82.2015993  31.1254083  23.1480113  82.8875993  30.6934083
  22.1210113  82.5245993  31.5274083  22.7680113  82.3505993  31.1204083
  22.6100113  85.6655993  24.9844083  21.9160113  86.0675993  25.3274083
  23.2870113  86.0985993  25.3234083  22.6070113  85.7885993  25.0854083
  27.9870113  88.2585993  31.5644083  28.7630113  87.8685993  31.6474083
  27.5180113  87.9225993  32.2194083  28.0320113  88.1515993  31.6734083
  15.6780113  79.2035993  27.3314083  16.0530113  79.8225993  26.8444083
  16.3520113  78.7295993  27.6164083  15.8330113  79.2255993  27.3014083
  13.4530113  77.6515993  26.6064083  13.5300113  77.4825993  25.7534083
  14.1990113  78.0575993  26.8034083  13.5740113  77.6865993  26.5094083
  29.0120113  80.2915993  17.0464083  29.1150113  80.2335993  16.1824083
  29.7530113  79.9595993  17.3644083  29.1370113  80.2345993  16.9654083
  16.0070113  75.0615993  29.0174083  15.9260113  74.2175993  29.2234083
  15.6930113  75.1055993  28.2044083  15.9490113  74.9435993  28.9274083
  22.9320113  87.2565993  18.1534083  22.7270113  88.0895993  17.9944083
  22.1570113  86.8745993  18.2754083  22.7870113  87.3235993  18.1484083
  28.1140113  80.4375993  26.4024083  28.1120113  79.5745993  26.5264083
  28.1810113  80.7615993  27.2094083  28.1240113  80.3575993  26.5394083
  12.8500113  82.8775993  26.8304083  13.1700113  83.0965993  26.0494083
  12.7500113  82.0125993  26.7754083  12.8820113  82.7825993  26.7074083
  14.3060113  78.8135993  13.4484083  13.6340113  78.8275993  14.0044083
  14.4010113  77.9655993  13.2644083  14.2210113  78.6905993  13.5034083
  23.9930113  75.2375993  30.1844083  24.0850113  75.9495993  30.6784083
  23.3560113  74.7925993  30.5814083  23.9120113  75.2765993  30.3164083
  22.9870113  75.4275993  21.0384083  22.2870113  75.9455993  20.9824083
  23.0250113  75.0475993  20.2544083  22.8890113  75.4485993  20.9144083
  18.2940113  87.5185993  14.5624083  18.7350113  87.5985993  15.3104083
  17.4890113  87.3025993  14.8204083  18.2400113  87.4985993  14.7114083
  26.5850113  75.9435993  23.8384083  27.4400113  76.0425993  23.9834083
  26.2160113  76.4965993  24.4034083  26.6570113  76.0405993  23.9434083
  17.6130113  82.1695993  28.2154083  17.2170113  82.9435993  28.2904083
  17.2070113  81.7965993  27.5394083  17.4950113  82.2285993  28.1264083
  26.8890113  81.2235993  22.3294083  27.5550113  81.7645993  22.4894083
  26.5440113  81.5345993  21.5904083  26.9360113  81.3495993  22.2444083
  15.6230113  86.5885993  15.1634083  15.3790113  86.2815993  15.9434083
  15.5900113  85.8855993  14.6474083  15.5820113  86.4395993  15.2024083
  18.4420113  84.8335993  13.9064083  17.6240113  84.5655993  14.0464083
  18.4140113  85.6855993  14.0914083  18.3170113  84.9205993  13.9544083
  18.0420113  75.1465993  25.6654083  17.1780113  75.2305993  25.7454083
  18.2620113  74.6325993  26.3344083  17.9470113  75.0835993  25.7764083
  30.0600113  73.7815993  26.9944083  30.0080113  73.7375993  27.8644083
  30.7470113  73.2785993  26.8044083  30.1540113  73.7015993  27.0944083
  22.1450113  75.8945993  24.0394083  21.4080113  75.4405993  24.1524083
  22.7160113  75.4925993  24.5624083  22.1200113  75.7675993  24.1334083
  24.8770113  86.7425993  25.8274083  25.0830113  87.0435993  26.6194083
  24.8160113  87.4645993  25.3424083  24.8980113  86.8935993  25.8724083
  19.6480113  80.2235993  29.2434083  19.3260113  79.6475993  28.6734083
  19.2890113  80.9785993  28.9974083  19.5480113  80.2495993  29.1234083
  20.4440113  73.4755993  13.8704083  20.5220113  73.7225993  13.0374083
  19.7010113  73.8525993  14.1284083  20.3460113  73.5675993  13.7854083
  29.6890113  85.3815993  25.2854083  29.6570113  84.5195993  25.1504083
  28.9960113  85.6835993  24.8514083  29.5820113  85.2985993  25.2014083
  27.7940113  88.6415993  24.0824083  28.3210113  88.5585993  23.3914083
  27.4030113  87.8635993  24.1364083  27.8140113  88.5145993  23.9884083
  15.2620113  75.2295993  26.3134083  14.9190113  74.4625993  26.0794083
  14.5670113  75.7535993  26.3774083  15.1090113  75.1935993  26.2884083
  24.3080113  74.0855993  23.2904083  24.9780113  74.6295993  23.4174083
  23.8050113  74.5095993  22.7174083  24.3330113  74.2285993  23.2244083
  23.6670113  79.8935993  20.7834083  24.2180113  79.2865993  21.0834083
  23.2420113  80.1565993  21.4984083  23.6860113  79.8425993  20.9324083
  13.9150113  78.5435993  20.2694083  13.5470113  78.8455993  21.0004083
  14.4490113  77.9145993  20.5534083  13.9390113  78.4955993  20.4194083
  13.6030113  86.9515993  27.7804083  13.0290113  87.3675993  28.2894083
  14.3360113  87.4165993  27.8754083  13.6270113  87.0815993  27.8694083
  25.6370113  81.7245993  17.3454083  25.7050113  80.8745993  17.5264083
  24.8140113  81.8105993  17.0674083  25.5250113  81.6115993  17.3314083
  19.5560113  82.6155993  16.2834083  19.6560113  82.7545993  15.4284083
  20.3740113  82.5555993  16.5794083  19.6910113  82.6265993  16.2004083
  28.9110113  83.0975993  30.4964083  29.5450113  82.9275993  31.0704083
  29.3280113  83.5005993  29.8444083  29.0660113  83.1325993  30.4854083
  24.7910113  86.9445993  16.0854083  24.5400113  86.8165993  16.9114083
  24.4740113  86.2495993  15.6644083  24.7070113  86.8235993  16.1454083
  29.5360113  77.6615993  31.2344083  29.3400113  78.3055993  31.7894083
  28.8140113  77.1715993  31.2264083  29.4010113  77.6845993  31.3154083
  29.4350113  78.6025993  24.2054083  28.6020113  78.8525993  24.1334083
  29.3790113  77.7625993  24.4344083  29.3040113  78.5155993  24.2284083
  18.6950113  75.5905993  29.3994083  18.9290113  75.0145993  28.7864083
  17.8530113  75.4095993  29.5404083  18.6050113  75.4785993  29.3294083
  26.3220113  83.2085993  31.8514083  27.1930113  83.1725993  31.8154083
  26.1030113  83.6285993  31.1194083  26.4190113  83.2645993  31.7384083
  21.6770113  85.1525993  15.5154083  22.3940113  84.8055993  15.1594083
  21.6430113  85.9525993  15.1674083  21.7780113  85.2195993  15.4114083
  22.8950113  80.7095993   4.4251673  22.3710113  81.3055993   4.7881673
  23.2920113  80.3415993   5.1091673  22.8760113  80.7435993   4.5801673
  12.7040113  87.5845993   6.1361673  12.8330113  87.3045993   6.9521673
  12.0940113  87.0435993   5.8271673  12.6330113  87.4635993   6.2111673
  19.2780113  85.1095993  11.2031673  19.0420113  85.1065993  12.0431673
  18.5300113  84.9615993  10.7791673  19.1320113  85.0865993  11.2641673
  18.6580113  77.7155993   5.6851673  19.3360113  77.7335993   5.1361673
  18.6130113  76.8795993   5.9301673  18.7510113  77.5945993   5.6401673
  19.2600113  88.3015993   8.4661673  19.3980113  89.0615993   8.0591673
  20.0510113  87.9365993   8.4931673  19.3970113  88.3605993   8.4101673
  20.3550113  86.1865993   2.9711673  20.7030113  85.3875993   3.0011673
  21.0200113  86.6905993   2.7161673  20.5050113  86.1425993   2.9381673
  22.3800113  79.7665993  10.5211673  21.5320113  79.6675993  10.3431673
  22.4090113  80.5115993  10.9751673  22.2590113  79.8625993  10.5621673
  26.9380113  72.7265993   9.6351673  26.7800113  73.4955993   9.2531673
  26.1660113  72.5065993   9.9791673  26.8000113  72.8075993   9.6301673
  12.6060113  79.8665993   3.3511673  12.3500113  80.6975993   3.2761673
  11.9420113  79.4835993   3.7681673  12.4700113  79.9325993   3.4021673
  15.6350113  74.6835993   3.8421673  15.1140113  74.0555993   3.5341673
  16.2260113  74.2465993   4.3131673  15.6460113  74.5255993   3.8661673
  18.9410113  76.8165993  13.1401673  19.0580113  76.3625993  12.4041673
  19.2290113  77.6145993  12.9371673  19.0010113  76.8675993  13.0011673
  14.6740113  76.4135993  12.1241673  13.8960113  76.0235993  12.0521673
  15.1650113  76.0015993  11.5331673  14.6310113  76.2945993  12.0261673
  14.8790113  86.7335993   2.6821673  15.3020113  86.3775993   2.0081673
  15.2030113  86.3115993   3.3741673  14.9890113  86.6185993   2.6851673
  21.3230113  74.0565993  11.2921673  21.5010113  73.2475993  11.0171673
  21.1800113  74.4975993  10.5531673  21.3280113  74.0025993  11.1421673
  29.4690113  75.6635993   5.8131673  30.2260113  75.7355993   5.3851673
  29.5320113  74.8905993   6.2121673  29.5900113  75.5605993   5.8081673
  12.0220113  76.9615993   9.7101673  12.0180113  77.5485993  10.3561673
  12.6160113  77.2735993   9.1531673  12.1090113  77.0945993   9.7231673
  24.3600113  87.2955993  10.2521673  24.3260113  87.6775993  11.0361673
  25.2140113  87.2535993  10.0811673  24.4810113  87.3455993  10.3431673
  15.1010113  88.9665993   6.8401673  14.4030113  88.4585993   6.9661673
  15.3610113  88.7615993   6.0321673  15.0360113  88.8615993   6.7391673
  16.4620113  87.8175993   9.4071673  17.3030113  87.8805993   9.1851673
  16.4250113  88.2145993  10.1831673  16.5810113  87.8855993   9.4891673
  18.4250113  83.3285993   4.1561673  18.5970113  83.1185993   4.9851673
  17.7700113  82.7945993   3.9401673  18.3540113  83.2185993   4.2471673
  24.6530113  77.2425993   7.6711673  24.5580113  77.5615993   8.4771673
  24.0600113  76.6035993   7.6331673  24.5510113  77.1945993   7.7851673
  19.1750113  83.2665993   6.7461673  19.2280113  84.1135993   6.9481673
  18.8900113  82.8965993   7.4831673  19.1410113  83.3365993   6.8841673
  25.3520113  83.9615993   5.8761673  24.8380113  83.5495993   6.4471673
  25.2260113  84.8055993   6.0571673  25.2580113  84.0255993   5.9871673
  11.9960113  87.6375993  12.9571673  12.7520113  87.9865993  13.2151673
  12.1730113  86.7845993  12.9001673  12.1340113  87.5625993  12.9871673
  28.3730113  77.4225993   8.8151673  29.1450113  77.1975993   9.1521673
  27.8980113  77.6395993   9.5151673  28.4170113  77.4215993   8.9681673
  14.0580113  77.8075993   4.8671673  14.9010113  78.0275993   4.8241673
  13.6690113  78.3805993   4.3361673  14.1250113  77.9245993   4.7821673
  12.2650113  85.7825993   2.8891673  11.5980113  86.2705993   3.1651673
  12.9450113  86.3275993   2.9181673  12.2670113  85.9345993   2.9341673
  19.9120113  79.4925993  12.9851673  19.4280113  80.0695993  13.4271673
  19.8840113  79.7875993  12.1641673  19.8360113  79.6215993  12.9291673
  31.0100113  80.1765993   7.5971673  31.2250113  79.3765993   7.3211673
  30.1600113  80.2365993   7.4081673  30.9160113  80.0675993   7.5281673
  16.7070113  85.6305993   4.6561673  17.1740113  85.9195993   5.3341673
  17.2790113  85.1525993   4.2021673  16.8610113  85.6025993   4.6891673
  25.1430113  77.6445993   2.3931673  25.4870113  77.7965993   3.1801673
  24.6900113  76.9065993   2.5061673  25.1270113  77.5575993   2.5261673
  13.2730113  83.3005993   3.2001673  13.7040113  83.1715993   2.4531673
  13.0680113  84.1485993   3.1741673  13.3060113  83.4065993   3.0861673
  15.4870113  80.2995993  11.3441673  14.9510113  79.7935993  11.8121673
  15.5070113  79.9095993  10.5641673  15.4100113  80.1665993  11.2981673
  16.1390113  81.5265993   3.0831673  15.3580113  81.4675993   2.7001673
  16.2110113  80.7745993   3.5201673  16.0340113  81.4075993   3.0911673
  16.5690113  81.2635993   6.5511673  16.5940113  80.5885993   6.0001673
  15.9230113  81.7595993   6.2391673  16.4780113  81.2365993   6.4241673
  26.4640113  78.9765993   4.9471673  25.8020113  79.3045993   5.4101673
  26.6510113  79.6105993   4.3781673  26.3940113  79.1185993   4.9311673
  23.1090113  74.8825993   8.3761673  23.2580113  74.0575993   8.1331673
  23.4880113  74.9375993   9.1601673  23.1870113  74.7685993   8.4561673
  14.3680113  82.6185993  12.1101673  14.3310113  83.1195993  11.3961673
  14.6990113  81.8665993  11.8151673  14.4110113  82.5805993  11.9611673
  25.9710113  84.8235993  10.3681673  26.4550113  85.5415993  10.4661673
  26.3650113  84.3965993   9.7171673  26.1010113  84.8665993  10.2861673
  20.2670113  87.6685993  11.5451673  20.6210113  87.4905993  12.3221673
  19.8310113  86.9395993  11.3461673  20.2550113  87.5345993  11.6311673
  21.2390113  78.4155993   4.1831673  21.7190113  79.1145993   4.3911673
  21.6120113  77.7685993   4.6341673  21.3650113  78.4235993   4.2801673
  24.4450113  88.5205993   4.2821673  23.8420113  88.2245993   3.7251673
  24.9900113  88.9725993   3.7731673  24.4360113  88.5435993   4.1241673
  24.4580113  85.3715993   3.6821673  23.6610113  85.5955993   3.9561673
  24.7160113  84.7775993   4.2671673  24.3780113  85.3165993   3.8091673
  27.7180113  83.3695993   8.5281673  27.7730113  83.4945993   7.6661673
  28.4710113  83.6895993   8.8301673  27.8370113  83.4345993   8.4451673
  28.7500113  73.6675993  11.5151673  28.1130113  73.2675993  11.0731673
  28.7760113  73.2365993  12.2731673  28.6600113  73.5455993  11.5611673
  23.4490113  83.1755993   8.1281673  23.2940113  83.7855993   8.7321673
  23.9830113  82.6175993   8.5341673  23.5050113  83.1835993   8.2771673
  27.0590113  85.9045993   4.6551673  26.5800113  86.2025993   3.9891673
  26.7030113  85.1285993   4.8331673  26.9360113  85.8335993   4.5831673
  21.0560113  83.6225993   3.2171673  20.2090113  83.4285993   3.2981673
  21.3800113  83.4575993   4.0101673  20.9780113  83.5695993   3.3461673
  14.9040113  83.3155993   5.5331673  15.6260113  83.8035993   5.4961673
  14.6340113  83.2855993   4.7041673  14.9710113  83.3835993   5.4051673
  18.1340113  78.4865993   2.2681673  18.9800113  78.2965993   2.3661673
  17.7640113  77.7095993   2.1301673  18.2040113  78.3435993   2.2621673
  27.9900113  82.8465993   5.7741673  27.9830113  82.0705993   6.1721673
  27.1490113  83.0805993   5.7671673  27.8650113  82.7665993   5.8321673
  14.2990113  84.3675993   9.8111673  13.8780113  83.8495993   9.2501673
  13.9470113  85.1535993   9.6681673  14.1850113  84.4075993   9.7071673
  29.2460113  82.9175993   3.2111673  28.9600113  83.3185993   3.9311673
  30.1060113  82.8555993   3.3381673  29.3310113  82.9675993   3.3361673
  26.9080113  76.8415993  11.7511673  26.3830113  77.3005993  12.2751673
  26.5470113  76.0465993  11.7451673  26.7770113  76.7915993  11.8271673
  12.4150113  75.6895993   3.6551673  12.4590113  76.0335993   2.8541673
  13.1700113  75.9265993   4.0221673  12.5330113  75.7755993   3.5911673
  30.3770113  88.5505993   3.7401673  30.6670113  88.8075993   2.9591673
  31.0720113  88.6465993   4.2591673  30.5230113  88.6025993   3.7011673
  25.4000113  80.4105993  11.8271673  25.4730113  80.5145993  12.6901673
  24.7660113  80.9685993  11.6061673  25.3170113  80.5085993  11.9221673
  27.6680113  80.7295993  10.1921673  27.9870113  81.5155993  10.3951673
  27.2980113  80.4595993  10.9351673  27.6610113  80.8055993  10.3321673
  30.3660113  81.2715993  12.9271673  30.3140113  80.9305993  12.1261673
  31.1030113  81.7385993  12.9051673  30.4670113  81.2905993  12.8051673
  29.9040113  84.9475993   9.1331673  30.5320113  84.3985993   8.8771673
  29.8430113  85.5125993   8.4711673  29.9880113  84.9505993   8.9971673
  19.0380113  86.1785993   6.4291673  18.7400113  86.7705993   6.9961673
  19.0930113  86.6205993   5.6801673  19.0020113  86.3315993   6.4021673
  17.0170113  85.1285993   9.8271673  16.2110113  84.8385993   9.9941673
  16.9280113  85.9965993   9.8331673  16.8850113  85.2135993   9.8521673
  26.3760113  75.3175993   8.8421673  27.1200113  75.7695993   8.7791673
  25.8100113  75.7875993   8.3731673  26.4030113  75.4545993   8.7641673
  21.5540113  82.6015993   5.9201673  22.0300113  82.9755993   6.5481673
  20.7310113  82.7355993   6.1791673  21.5030113  82.6765993   6.0511673
  18.2640113  78.2045993   8.6611673  18.4250113  77.4605993   9.0881673
  18.2190113  77.9555993   7.8261673  18.2810113  78.0575993   8.6011673
  27.6610113  73.2975993   6.5121673  27.3810113  74.1225993   6.4681673
  28.3770113  73.3505993   7.0081673  27.7260113  73.4275993   6.5791673
  20.0160113  74.0125993   8.5411673  20.7210113  74.3325993   8.1391673
  20.2570113  73.2055993   8.7681673  20.1550113  73.9405993   8.5151673
  19.0010113  88.2225993   4.5371673  18.3770113  88.8045993   4.3551673
  19.2490113  87.9365993   3.7511673  18.9450113  88.2665993   4.3941673
  23.3100113  84.8565993  11.5261673  24.0670113  85.1425993  11.2001673
  22.7630113  84.9085993  10.8481673  23.3410113  84.9065993  11.3771673
  27.2190113  87.4065993  10.0301673  27.5650113  87.6765993  10.7841673
  27.5130113  87.9885993   9.4501673  27.3140113  87.5325993  10.0561673
  16.5250113  79.0655993   4.6021673  16.9650113  78.9625993   3.8561673
  17.0700113  78.7525993   5.2071673  16.6700113  79.0045993   4.5811673
  24.5410113  78.1675993  10.1941673  23.8930113  78.6375993  10.5421673
  25.1060113  78.0785993  10.8531673  24.5290113  78.2235993  10.3431673
  24.2290113  79.7045993   6.4921673  24.5310113  80.1245993   7.1951673
  24.2650113  78.8645993   6.7241673  24.2790113  79.6425993   6.6301673
  20.0720113  74.0505993   4.6491673  19.2460113  73.9015993   4.8861673
  20.0320113  74.0855993   3.7781673  19.9440113  74.0335993   4.5551673
  21.7130113  85.0905993   9.4371673  20.9180113  85.0265993   9.7881673
  21.7840113  85.9375993   9.2421673  21.6060113  85.2055993   9.4601673
  12.6370113  74.4485993  10.6841673  12.4970113  75.2435993  10.3531673
  11.8510113  74.2055993  10.9731673  12.5000113  74.5305993  10.6781673
  22.2020113  87.7375993   8.5451673  22.8890113  87.6235993   9.0701673
  22.3360113  88.5285993   8.2011673  22.3230113  87.8375993   8.5721673
  30.3780113  80.3465993  10.3561673  29.5230113  80.2245993  10.4821673
  30.5310113  79.9515993   9.5931673  30.2740113  80.2695993  10.2621673
  24.8910113  81.0115993   8.9321673  24.6360113  80.2925993   9.3541673
  25.7120113  81.1275993   9.2021673  24.9750113  80.9225993   9.0341673
  22.8250113  82.2015993  12.1191673  23.1480113  82.8875993  11.6871673
  22.1210113  82.5245993  12.5211673  22.7680113  82.3505993  12.1141673
  22.6100113  85.6655993   5.9781673  21.9160113  86.0675993   6.3211673
  23.2870113  86.0985993   6.3171673  22.6070113  85.7885993   6.0791673
  27.9870113  88.2585993  12.5581673  28.7630113  87.8685993  12.6411673
  27.5180113  87.9225993  13.2131673  28.0320113  88.1515993  12.6671673
  15.6780113  79.2035993   8.3251673  16.0530113  79.8225993   7.8381673
  16.3520113  78.7295993   8.6101673  15.8330113  79.2255993   8.2951673
  13.4530113  77.6515993   7.6001673  13.5300113  77.4825993   6.7471673
  14.1990113  78.0575993   7.7971673  13.5740113  77.6865993   7.5031673
  16.0070113  75.0615993  10.0111673  15.9260113  74.2175993  10.2171673
  15.6930113  75.1055993   9.1981673  15.9490113  74.9435993   9.9211673
  28.1140113  80.4375993   7.3961673  28.1120113  79.5745993   7.5201673
  28.1810113  80.7615993   8.2031673  28.1240113  80.3575993   7.5331673
  12.8500113  82.8775993   7.8241673  13.1700113  83.0965993   7.0431673
  12.7500113  82.0125993   7.7691673  12.8820113  82.7825993   7.7011673
  23.9930113  75.2375993  11.1781673  24.0850113  75.9495993  11.6721673
  23.3560113  74.7925993  11.5751673  23.9120113  75.2765993  11.3101673
  26.5850113  75.9435993   4.8321673  27.4400113  76.0425993   4.9771673
  26.2160113  76.4965993   5.3971673  26.6570113  76.0405993   4.9371673
  17.6130113  82.1695993   9.2091673  17.2170113  82.9435993   9.2841673
  17.2070113  81.7965993   8.5331673  17.4950113  82.2285993   9.1201673
  26.8890113  81.2235993   3.3231673  27.5550113  81.7645993   3.4831673
  26.5440113  81.5345993   2.5841673  26.9360113  81.3495993   3.2381673
  18.0420113  75.1465993   6.6591673  17.1780113  75.2305993   6.7391673
  18.2620113  74.6325993   7.3281673  17.9470113  75.0835993   6.7701673
  30.0600113  73.7815993   7.9881673  30.0080113  73.7375993   8.8581673
  30.7470113  73.2785993   7.7981673  30.1540113  73.7015993   8.0881673
  22.1450113  75.8945993   5.0331673  21.4080113  75.4405993   5.1461673
  22.7160113  75.4925993   5.5561673  22.1200113  75.7675993   5.1271673
  24.8770113  86.7425993   6.8211673  25.0830113  87.0435993   7.6131673
  24.8160113  87.4645993   6.3361673  24.8980113  86.8935993   6.8661673
  19.6480113  80.2235993  10.2371673  19.3260113  79.6475993   9.6671673
  19.2890113  80.9785993   9.9911673  19.5480113  80.2495993  10.1171673
  29.6890113  85.3815993   6.2791673  29.6570113  84.5195993   6.1441673
  28.9960113  85.6835993   5.8451673  29.5820113  85.2985993   6.1951673
  27.7940113  88.6415993   5.0761673  28.3210113  88.5585993   4.3851673
  27.4030113  87.8635993   5.1301673  27.8140113  88.5145993   4.9821673
  15.2620113  75.2295993   7.3071673  14.9190113  74.4625993   7.0731673
  14.5670113  75.7535993   7.3711673  15.1090113  75.1935993   7.2821673
  24.3080113  74.0855993   4.2841673  24.9780113  74.6295993   4.4111673
  23.8050113  74.5095993   3.7111673  24.3330113  74.2285993   4.2181673
  23.6670113  79.8935993   1.7771673  24.2180113  79.2865993   2.0771673
  23.2420113  80.1565993   2.4921673  23.6860113  79.8425993   1.9261673
  13.6030113  86.9515993   8.7741673  13.0290113  87.3675993   9.2831673
  14.3360113  87.4165993   8.8691673  13.6270113  87.0815993   8.8631673
  28.9110113  83.0975993  11.4901673  29.5450113  82.9275993  12.0641673
  29.3280113  83.5005993  10.8381673  29.0660113  83.1325993  11.4791673
  29.5360113  77.6615993  12.2281673  29.3400113  78.3055993  12.7831673
  28.8140113  77.1715993  12.2201673  29.4010113  77.6845993  12.3091673
  29.4350113  78.6025993   5.1991673  28.6020113  78.8525993   5.1271673
  29.3790113  77.7625993   5.4281673  29.3040113  78.5155993   5.2221673
  18.6950113  75.5905993  10.3931673  18.9290113  75.0145993   9.7801673
  17.8530113  75.4095993  10.5341673  18.6050113  75.4785993  10.3231673
  26.3220113  83.2085993  12.8451673  27.1930113  83.1725993  12.8091673
  26.1030113  83.6285993  12.1131673  26.4190113  83.2645993  12.7321673
  23.0860113  55.3154913  75.7791313  22.8410113  55.8034913  75.0991313
  23.9490113  55.2424913  75.6791313  23.1770113  55.3764913  75.6641313
  22.8950113  62.2314913  80.4501313  22.3710113  62.8274913  80.8131313
  23.2920113  61.8634913  81.1341313  22.8760113  62.2654913  80.6051313
  12.7640113  66.3714913  75.9061313  12.3230113  66.4894913  76.6491313
  12.4810113  65.5964913  75.6211313  12.6570113  66.2744913  75.9741313
  29.0390113  69.6724913  73.4211313  29.7400113  69.1534913  73.4171313
  28.4520113  69.2274913  72.9521313  29.0560113  69.5294913  73.3511313
  12.5070113  60.1634913  72.4131313  11.7290113  60.3254913  72.0531313
  12.5460113  59.2924913  72.4351313  12.3980113  60.0584913  72.3631313
  15.6460113  65.4264913  71.0851313  15.2540113  65.0554913  70.3991313
  15.5660113  64.8284913  71.7141313  15.5760113  65.2834913  71.0761313
  25.5660113  63.2984913  77.1261313  25.6460113  63.3024913  76.2571313
  24.9820113  62.6664913  77.2751313  25.4910113  63.2054913  77.0201313
  15.2730113  67.0674913  74.9851313  15.8810113  66.8974913  75.5881313
  14.5220113  66.9274913  75.4061313  15.2520113  67.0214913  75.1361313
  19.5550113  56.4024913  74.9341313  19.4850113  57.0794913  74.3881313
  20.2960113  56.0144913  74.6851313  19.6540113  56.4454913  74.8161313
  14.1640113  70.1584913  71.0621313  14.6310113  70.2424913  70.3301313
  14.6190113  69.5804913  71.5311313  14.3000113  70.0854913  71.0231313
  14.1500113  63.6274913  76.3631313  13.6880113  63.2354913  75.7361313
  14.8500113  63.1144913  76.4551313  14.1850113  63.4944913  76.2841313
  16.1510113  61.7274913  76.3861313  16.9680113  61.5404913  76.6291313
  15.6740113  61.1134913  76.7821313  16.2010113  61.6094913  76.4811313
  20.3550113  67.7084913  78.9961313  20.7030113  66.9094913  79.0261313
  21.0200113  68.2124913  78.7411313  20.5050113  67.6644913  78.9631313
  20.4120113  67.1574913  75.2071313  20.7430113  66.5134913  75.6931313
  20.6520113  66.9464913  74.3961313  20.4960113  67.0314913  75.1591313
  16.7480113  56.8214913  75.6521313  16.4520113  57.3224913  75.0021313
  17.6150113  56.8994913  75.5951313  16.8320113  56.9074913  75.5481313
  19.7270113  55.9634913  77.8751313  19.8000113  56.8234913  78.0041313
  19.6890113  55.8884913  77.0071313  19.7320113  56.0794913  77.7661313
  24.4000113  58.8894913  70.1741313  23.9500113  59.5704913  70.4811313
  24.5140113  58.3854913  70.8771313  24.3510113  58.9154913  70.3231313
  12.6060113  61.3884913  79.3761313  12.3500113  62.2194913  79.3011313
  11.9420113  61.0054913  79.7931313  12.4700113  61.4544913  79.4271313
  12.5160113  71.0984913  77.2761313  11.9240113  71.6564913  76.9631313
  12.9420113  70.8294913  76.5641313  12.4920113  71.1404913  77.1251313
  18.3560113  68.9424913  74.7561313  17.7770113  68.6674913  75.3481313
  18.9800113  68.3334913  74.7811313  18.3630113  68.8124913  74.8471313
  24.4990113  71.2304913  72.2781313  25.2260113  71.7024913  72.3801313
  24.7280113  70.4364913  72.5581313  24.6410113  71.1834913  72.3351313
  22.6670113  71.6224913  74.2681313  22.8810113  72.1494913  74.9301313
  23.4340113  71.4484913  73.8891313  22.8120113  71.6744913  74.3101313
  15.6350113  56.2054913  79.8671313  15.1140113  55.5774913  79.5591313
  16.2260113  55.7684913  80.3381313  15.6460113  56.0474913  79.8911313
  14.0610113  69.7684913  75.2071313  14.7170113  69.1934913  75.2221313
  14.4500113  70.5174913  74.9861313  14.2160113  69.7934913  75.1771313
  29.7940113  58.8624913  76.4691313  29.4480113  59.5404913  76.8951313
  29.1580113  58.2644913  76.4851313  29.6490113  58.8744913  76.5341313
  14.8790113  68.2554913  78.7071313  15.3020113  67.8994913  78.0331313
  15.2030113  67.8334913  79.3991313  14.9890113  68.1404913  78.7101313
  18.1100113  71.1074913  78.0031313  18.9540113  71.2114913  77.8081313
  17.8130113  71.9254913  78.0711313  18.1910113  71.2434913  77.9841313
  21.9170113  60.5044913  76.0901313  22.2040113  60.2724913  75.3001313
  22.6490113  60.5834913  76.5591313  22.0670113  60.4814913  76.0431313
  22.6390113  60.8434913  71.2111313  22.9200113  61.6314913  71.4601313
  21.8630113  61.0084913  70.8481313  22.5660113  60.9844913  71.1941313
  26.6800113  72.8174913  72.6781313  27.3450113  72.6694913  72.1331313
  27.0400113  72.7344913  73.4681313  26.8320113  72.7834913  72.7141313
  21.4980113  69.0144913  71.0271313  21.3170113  69.5594913  71.6841313
  22.2640113  69.3044913  70.7261313  21.5840113  69.1384913  71.0801313
  25.0050113  56.9104913  72.0811313  25.5450113  56.2284913  72.1571313
  25.0670113  57.3084913  72.8551313  25.0940113  56.8684913  72.2071313
  12.9590113  58.0784913  74.6501313  12.8450113  57.2144913  74.6811313
  12.4840113  58.3724913  75.3201313  12.8720113  57.9944913  74.7531313
  22.2630113  59.2864913  73.3951313  21.7550113  58.6244913  73.1411313
  22.3150113  59.7904913  72.6851313  22.1960113  59.2634913  73.2531313
  22.2630113  56.2274913  73.2861313  21.8080113  55.8254913  72.6601313
  23.0360113  56.3824913  72.9111313  22.3100113  56.1914913  73.1381313
  29.0890113  72.5844913  76.6761313  28.6340113  73.3014913  76.8771313
  28.4750113  72.0134913  76.4341313  28.9310113  72.6064913  76.6701313
  20.8610113  58.5944913  77.8081313  20.9350113  59.1624913  77.1501313
  20.9820113  59.0864913  78.5181313  20.8890113  58.7514913  77.8161313
  26.0860113  68.4294913  76.2201313  26.7870113  67.9474913  76.4091313
  25.4260113  67.8604913  76.2651313  26.0920113  68.2744913  76.2541313
  15.4690113  54.4174913  76.1561313  16.0050113  55.1054913  76.1461313
  15.4720113  54.1434913  75.3281313  15.5480113  54.4784913  76.0321313
  18.4250113  64.8504913  80.1811313  18.5970113  64.6404913  81.0101313
  17.7700113  64.3164913  79.9651313  18.3540113  64.7404913  80.2721313
  25.9090113  54.7084913  76.5321313  25.9580113  54.3904913  77.3431313
  26.2320113  54.0644913  76.0391313  25.9640113  54.5664913  76.5791313
  15.9170113  58.2274913  77.8101313  16.1890113  57.7974913  77.1021313
  15.7410113  57.5914913  78.3811313  15.9310113  58.0704913  77.7901313
  28.6050113  65.9224913  72.0281313  28.7240113  65.6354913  72.8431313
  29.4120113  65.9434913  71.6981313  28.7410113  65.8834913  72.1001313
  15.7410113  65.6544913  77.3591313  16.5920113  65.5744913  77.1861313
  15.3840113  64.9724913  76.9471313  15.8140113  65.5414913  77.2721313
  14.5080113  72.3794913  78.5961313  13.8350113  71.8814913  78.3511313
  14.9110113  72.5644913  77.8451313  14.4680113  72.3334913  78.4491313
  14.0580113  59.3294913  80.8921313  14.9010113  59.5494913  80.8491313
  13.6690113  59.9024913  80.3611313  14.1250113  59.4464913  80.8071313
  26.5000113  62.4594913  71.6131313  26.2800113  63.1904913  71.1911313
  26.0520113  62.5104913  72.3601313  26.4010113  62.5744913  71.6611313
  18.1090113  65.6614913  75.5941313  18.8220113  66.1564913  75.6841313
  18.3310113  65.0944913  74.9681313  18.2470113  65.6504913  75.5151313
  30.6870113  57.3204913  71.0661313  30.0250113  56.7524913  71.0891313
  30.4940113  57.8324913  70.3861313  30.5610113  57.3124913  70.9691313
  12.2650113  67.3044913  78.9141313  11.5980113  67.7924913  79.1901313
  12.9450113  67.8494913  78.9431313  12.2670113  67.4564913  78.9591313
  12.3310113  63.9884913  74.0171313  12.1460113  63.1494913  74.1691313
  12.9900113  63.9524913  73.4471313  12.4010113  63.8594913  73.9551313
  28.6890113  56.8784913  73.3451313  29.4350113  56.4714913  73.5441313
  28.9520113  57.5934913  72.9201313  28.8380113  56.9244913  73.3121313
  22.6320113  69.3644913  77.9211313  22.1090113  69.9984913  77.6281313
  22.9420113  69.0004913  77.1921313  22.6000113  69.4044913  77.7701313
  12.5030113  68.1524913  73.5921313  13.0550113  68.7214913  73.9561313
  12.2710113  67.6374913  74.2571313  12.5500113  68.1604913  73.7441313
  16.7070113  67.1524913  80.6811313  17.1740113  67.4414913  81.3591313
  17.2790113  66.6744913  80.2271313  16.8610113  67.1244913  80.7141313
  25.1430113  59.1664913  78.4181313  25.4870113  59.3184913  79.2051313
  24.6900113  58.4284913  78.5311313  25.1270113  59.0794913  78.5511313
  12.3330113  66.6014913  71.2201313  13.0890113  66.1694913  71.2781313
  12.3480113  67.1334913  71.9111313  12.4470113  66.6164913  71.3311313
  13.2730113  64.8224913  79.2251313  13.7040113  64.6934913  78.4781313
  13.0680113  65.6704913  79.1991313  13.3060113  64.9284913  79.1111313
  19.6190113  58.3864913  72.8751313  19.6170113  58.2694913  72.0101313
  19.4380113  59.2344913  72.9671313  19.5920113  58.4944913  72.7611313
  17.3570113  68.3384913  77.5071313  17.4830113  69.1814913  77.6941313
  18.0250113  67.9394913  77.9031313  17.4750113  68.4044913  77.5931313
  15.9720113  61.2184913  72.5091313  15.8440113  60.7704913  73.2471313
  15.3900113  60.8764913  71.9571313  15.8670113  61.1014913  72.5371313
  16.1390113  63.0484913  79.1081313  15.3580113  62.9894913  78.7251313
  16.2110113  62.2964913  79.5451313  16.0340113  62.9294913  79.1161313
  26.4640113  60.4984913  80.9721313  25.8020113  60.8264913  81.4351313
  26.6510113  61.1324913  80.4031313  26.3940113  60.6404913  80.9561313
  24.6570113  58.4674913  74.4831313  25.1470113  59.1844913  74.4061313
  23.8670113  58.7284913  74.2201313  24.6130113  58.6114913  74.4331313
  21.2390113  59.9374913  80.2081313  21.7190113  60.6364913  80.4161313
  21.6120113  59.2904913  80.6591313  21.3650113  59.9454913  80.3051313
  23.4280113  63.1064913  72.4821313  23.4200113  63.8284913  71.9921313
  22.7890113  63.2414913  73.0591313  23.3330113  63.2334913  72.4951313
  28.4000113  66.9764913  76.4631313  28.7560113  66.6264913  77.1781313
  28.3920113  66.3154913  75.8931313  28.4520113  66.8264913  76.4841313
  24.4450113  70.0424913  80.3071313  23.8420113  69.7464913  79.7501313
  24.9900113  70.4944913  79.7981313  24.4360113  70.0654913  80.1491313
  24.4580113  66.8934913  79.7071313  23.6610113  67.1174913  79.9811313
  24.7160113  66.2994913  80.2921313  24.3780113  66.8384913  79.8341313
  18.3500113  71.7054913  74.1551313  18.2030113  70.9294913  74.5261313
  19.0390113  71.5584913  73.6401313  18.4300113  71.5684913  74.1341313
  18.0210113  55.4484913  72.1431313  18.1180113  55.3414913  73.0041313
  17.3130113  55.9544913  72.0781313  17.9310113  55.5074913  72.2611313
  20.6420113  71.2214913  72.5571313  21.2640113  71.3844913  73.1471313
  20.6780113  71.9124913  72.0251313  20.7390113  71.3474913  72.5661313
  15.1430113  63.7554913  73.3861313  15.4670113  62.9764913  73.1641313
  15.7890113  64.1234913  73.8411313  15.2860113  63.6944913  73.4201313
  12.1400113  55.4164913  74.3541313  12.2690113  54.7084913  73.8621313
  11.7730113  55.0984913  75.0791313  12.1050113  55.2644913  74.3891313
  21.8330113  63.0974913  74.8111313  21.8920113  63.7474913  75.3901313
  21.6440113  62.4014913  75.3021313  21.8140113  63.0904913  74.9691313
  27.0590113  67.4264913  80.6801313  26.5800113  67.7244913  80.0141313
  26.7030113  66.6504913  80.8581313  26.9360113  67.3554913  80.6081313
  16.3290113  57.6144913  71.3231313  15.8180113  57.6674913  70.6171313
  17.1130113  57.8544913  71.0271313  16.3690113  57.6574913  71.1751313
  21.0560113  65.1444913  79.2421313  20.2090113  64.9504913  79.3231313
  21.3800113  64.9794913  80.0351313  20.9780113  65.0914913  79.3711313
  17.8080113  71.8744913  70.1281313  18.2470113  71.1774913  70.4161313
  18.0150113  72.4984913  70.7011313  17.9040113  71.8634913  70.2551313
  14.9040113  64.8374913  81.5581313  15.6260113  65.3254913  81.5211313
  14.6340113  64.8074913  80.7291313  14.9710113  64.9054913  81.4301313
  18.1340113  60.0084913  78.2931313  18.9800113  59.8184913  78.3911313
  17.7640113  59.2314913  78.1551313  18.2040113  59.8654913  78.2871313
  30.7510113  71.5924913  72.6201313  31.4450113  71.1254913  72.3721313
  30.2120113  70.9944913  72.9571313  30.7740113  71.4344913  72.6331313
  12.9550113  61.3464913  74.9481313  13.4440113  61.0544913  75.6091313
  13.0840113  60.7534913  74.3211313  13.0460113  61.2154913  74.9531313
  17.4800113  62.7804913  70.4341313  16.8700113  62.3754913  70.9081313
  17.0940113  62.8984913  69.6611313  17.3330113  62.7374913  70.3901313
  29.2460113  64.4394913  79.2361313  28.9600113  64.8404913  79.9561313
  30.1060113  64.3774913  79.3631313  29.3310113  64.4894913  79.3611313
  18.9350113  61.2414913  73.1441313  19.2070113  62.0674913  73.2111313
  18.0720113  61.3164913  73.0481313  18.8480113  61.3744913  73.1391313
  12.4150113  57.2114913  79.6801313  12.4590113  57.5554913  78.8791313
  13.1700113  57.4484913  80.0471313  12.5330113  57.2974913  79.6161313
  30.3770113  70.0724913  79.7651313  30.6670113  70.3294913  78.9841313
  31.0720113  70.1684913  80.2841313  30.5230113  70.1244913  79.7261313
  26.9820113  68.6754913  71.7471313  27.3160113  67.8694913  71.7821313
  26.2270113  68.6034913  72.1771313  26.9200113  68.5454913  71.8161313
  27.4640113  60.5094913  77.4061313  26.7190113  60.1864913  77.7241313
  27.4660113  61.3354913  77.6861313  27.3540113  60.5834913  77.4941313
  24.3560113  66.5504913  71.1501313  25.0400113  66.0364913  70.9811313
  23.9390113  66.5964913  70.3851313  24.3950113  66.4814913  71.0121313
  20.8180113  71.5164913  77.1731313  21.3640113  72.1954913  77.2271313
  20.4680113  71.5984913  76.3781313  20.8470113  71.6294913  77.0631313
  19.0010113  69.7444913  80.5621313  18.3770113  70.3264913  80.3801313
  19.2490113  69.4584913  79.7761313  18.9450113  69.7884913  80.4191313
  29.0820113  61.0744913  71.3941313  29.4600113  61.7514913  70.9941313
  28.2400113  61.2984913  71.4251313  29.0130113  61.2074913  71.3391313
  20.5950113  64.5204913  70.4771313  19.7900113  64.3434913  70.1921313
  20.5620113  65.3714913  70.6691313  20.4710113  64.6194913  70.4641313
  16.5250113  60.5874913  80.6271313  16.9650113  60.4844913  79.8811313
  17.0700113  60.2744913  81.2321313  16.6700113  60.5264913  80.6061313
  26.7770113  60.6734913  74.7691313  26.9840113  60.4724913  75.5931313
  27.5330113  60.9414913  74.4271313  26.9190113  60.6834913  74.8401313
  20.0720113  55.5724913  80.6741313  19.2460113  55.4234913  80.9111313
  20.0320113  55.6074913  79.8031313  19.9440113  55.5554913  80.5801313
  27.7990113  56.7564913  76.2431313  27.0850113  56.2854913  76.4141313
  27.6370113  57.0974913  75.4571313  27.6700113  56.7374913  76.1521313
  28.2420113  64.7004913  74.6231313  28.7180113  63.9714913  74.5751313
  27.4210113  64.4144913  74.5471313  28.1910113  64.5504913  74.6041313
  15.7010113  58.7144913  73.9341313  15.8270113  58.3854913  73.1361313
  14.8890113  58.4654913  74.1331313  15.6000113  58.6294913  73.8461313
  24.4580113  65.8674913  76.9781313  24.5340113  66.2084913  77.7771313
  24.6270113  65.0204913  77.0991313  24.4940113  65.7924913  77.1141313
  21.9800113  65.1414913  76.5431313  21.6820113  64.8264913  77.3001313
  22.6750113  65.6144913  76.7781313  22.0390113  65.1644913  76.6901313
  25.9090113  72.0974913  79.0731313  25.4580113  72.7404913  79.4521313
  26.6170113  72.0184913  79.5781313  25.9470113  72.1804913  79.2041313
  29.0120113  61.8134913  74.0651313  29.1150113  61.7554913  73.2011313
  29.7530113  61.4814913  74.3831313  29.1370113  61.7564913  73.9841313
  22.9320113  68.7784913  75.1721313  22.7270113  69.6114913  75.0131313
  22.1570113  68.3964913  75.2941313  22.7870113  68.8454913  75.1671313
  14.3060113  60.3354913  70.4671313  13.6340113  60.3494913  71.0231313
  14.4010113  59.4874913  70.2831313  14.2210113  60.2124913  70.5221313
  22.9870113  56.9494913  78.0571313  22.2870113  57.4674913  78.0011313
  23.0250113  56.5694913  77.2731313  22.8890113  56.9704913  77.9331313
  18.2940113  69.0404913  71.5811313  18.7350113  69.1204913  72.3291313
  17.4890113  68.8244913  71.8391313  18.2400113  69.0204913  71.7301313
  26.5850113  57.4654913  80.8571313  27.4400113  57.5644913  81.0021313
  26.2160113  58.0184913  81.4221313  26.6570113  57.5624913  80.9621313
  26.8890113  62.7454913  79.3481313  27.5550113  63.2864913  79.5081313
  26.5440113  63.0564913  78.6091313  26.9360113  62.8714913  79.2631313
  27.2020113  70.8114913  75.1551313  27.0280113  70.1574913  75.7051313
  27.9150113  70.5404913  74.7321313  27.2820113  70.6744913  75.1741313
  15.6230113  68.1104913  72.1821313  15.3790113  67.8034913  72.9621313
  15.5900113  67.4074913  71.6661313  15.5820113  67.9614913  72.2211313
  18.4420113  66.3554913  70.9251313  17.6240113  66.0874913  71.0651313
  18.4140113  67.2074913  71.1101313  18.3170113  66.4424913  70.9731313
  22.1450113  57.4164913  81.0581313  21.4080113  56.9624913  81.1711313
  22.7160113  57.0144913  81.5811313  22.1200113  57.2894913  81.1521313
  20.4440113  54.9974913  70.8891313  20.5220113  55.2444913  70.0561313
  19.7010113  55.3744913  71.1471313  20.3460113  55.0894913  70.8041313
  27.7940113  70.1634913  81.1011313  28.3210113  70.0804913  80.4101313
  27.4030113  69.3854913  81.1551313  27.8140113  70.0364913  81.0071313
  24.3080113  55.6074913  80.3091313  24.9780113  56.1514913  80.4361313
  23.8050113  56.0314913  79.7361313  24.3330113  55.7504913  80.2431313
  23.6670113  61.4154913  77.8021313  24.2180113  60.8084913  78.1021313
  23.2420113  61.6784913  78.5171313  23.6860113  61.3644913  77.9511313
  13.9150113  60.0654913  77.2881313  13.5470113  60.3674913  78.0191313
  14.4490113  59.4364913  77.5721313  13.9390113  60.0174913  77.4381313
  25.6370113  63.2464913  74.3641313  25.7050113  62.3964913  74.5451313
  24.8140113  63.3324913  74.0861313  25.5250113  63.1334913  74.3501313
  15.3890113  71.7404913  73.5741313  15.2440113  71.8964913  72.7281313
  16.2550113  71.8194913  73.6521313  15.4960113  71.7754913  73.4611313
  19.5560113  64.1374913  73.3021313  19.6560113  64.2764913  72.4471313
  20.3740113  64.0774913  73.5981313  19.6910113  64.1484913  73.2191313
  28.7160113  72.2014913  70.7821313  29.3530113  72.0674913  71.3631313
  28.3750113  71.4074913  70.6651313  28.7600113  72.0644913  70.8501313
  24.7910113  68.4664913  73.1041313  24.5400113  68.3384913  73.9301313
  24.4740113  67.7714913  72.6831313  24.7070113  68.3454913  73.1641313
  29.4350113  60.1244913  81.2241313  28.6020113  60.3744913  81.1521313
  29.3790113  59.2844913  81.4531313  29.3040113  60.0374913  81.2471313
  16.0760113  70.5554913  80.0511313  15.9970113  69.7454913  79.7351313
  15.6320113  71.0424913  79.4791313  15.9990113  70.5074913  79.9201313
  21.6770113  66.6744913  72.5341313  22.3940113  66.3274913  72.1781313
  21.6430113  67.4744913  72.1861313  21.7780113  66.7414913  72.4301313
  22.8950113  62.2314913  61.4438903  22.3710113  62.8274913  61.8068903
  23.2920113  61.8634913  62.1278903  22.8760113  62.2654913  61.5988903
  12.7640113  66.3714913  56.8998903  12.3230113  66.4894913  57.6428903
  12.4810113  65.5964913  56.6148903  12.6570113  66.2744913  56.9678903
  12.5070113  60.1634913  53.4068903  11.7290113  60.3254913  53.0468903
  12.5460113  59.2924913  53.4288903  12.3980113  60.0584913  53.3568903
  15.6460113  65.4264913  52.0788903  15.2540113  65.0554913  51.3928903
  15.5660113  64.8284913  52.7078903  15.5760113  65.2834913  52.0698903
  25.5660113  63.2984913  58.1198903  25.6460113  63.3024913  57.2508903
  24.9820113  62.6664913  58.2688903  25.4910113  63.2054913  58.0138903
  15.2730113  67.0674913  55.9788903  15.8810113  66.8974913  56.5818903
  14.5220113  66.9274913  56.3998903  15.2520113  67.0214913  56.1298903
  19.5550113  56.4024913  55.9278903  19.4850113  57.0794913  55.3818903
  20.2960113  56.0144913  55.6788903  19.6540113  56.4454913  55.8098903
  14.1640113  70.1584913  52.0558903  14.6310113  70.2424913  51.3238903
  14.6190113  69.5804913  52.5248903  14.3000113  70.0854913  52.0168903
  12.7040113  69.1064913  63.1548903  12.8330113  68.8264913  63.9708903
  12.0940113  68.5654913  62.8458903  12.6330113  68.9854913  63.2298903
  19.2780113  66.6314913  68.2218903  19.0420113  66.6284913  69.0618903
  18.5300113  66.4834913  67.7978903  19.1320113  66.6084913  68.2828903
  14.1500113  63.6274913  57.3568903  13.6880113  63.2354913  56.7298903
  14.8500113  63.1144913  57.4488903  14.1850113  63.4944913  57.2778903
  18.6580113  59.2374913  62.7038903  19.3360113  59.2554913  62.1548903
  18.6130113  58.4014913  62.9488903  18.7510113  59.1164913  62.6588903
  19.2600113  69.8234913  65.4848903  19.3980113  70.5834913  65.0778903
  20.0510113  69.4584913  65.5118903  19.3970113  69.8824913  65.4288903
  16.1510113  61.7274913  57.3798903  16.9680113  61.5404913  57.6228903
  15.6740113  61.1134913  57.7758903  16.2010113  61.6094913  57.4748903
  20.3550113  67.7084913  59.9898903  20.7030113  66.9094913  60.0198903
  21.0200113  68.2124913  59.7348903  20.5050113  67.6644913  59.9568903
  20.4120113  67.1574913  56.2008903  20.7430113  66.5134913  56.6868903
  20.6520113  66.9464913  55.3898903  20.4960113  67.0314913  56.1528903
  22.3800113  61.2884913  67.5398903  21.5320113  61.1894913  67.3618903
  22.4090113  62.0334913  67.9938903  22.2590113  61.3844913  67.5808903
  16.7480113  56.8214913  56.6458903  16.4520113  57.3224913  55.9958903
  17.6150113  56.8994913  56.5888903  16.8320113  56.9074913  56.5418903
  26.9380113  54.2484913  66.6538903  26.7800113  55.0174913  66.2718903
  26.1660113  54.0284913  66.9978903  26.8000113  54.3294913  66.6488903
  19.7270113  55.9634913  58.8688903  19.8000113  56.8234913  58.9978903
  19.6890113  55.8884913  58.0008903  19.7320113  56.0794913  58.7598903
  12.6060113  61.3884913  60.3698903  12.3500113  62.2194913  60.2948903
  11.9420113  61.0054913  60.7868903  12.4700113  61.4544913  60.4208903
  12.5160113  71.0984913  58.2698903  11.9240113  71.6564913  57.9568903
  12.9420113  70.8294913  57.5578903  12.4920113  71.1404913  58.1188903
  18.3560113  68.9424913  55.7498903  17.7770113  68.6674913  56.3418903
  18.9800113  68.3334913  55.7748903  18.3630113  68.8124913  55.8408903
  24.4990113  71.2304913  53.2718903  25.2260113  71.7024913  53.3738903
  24.7280113  70.4364913  53.5518903  24.6410113  71.1834913  53.3288903
  22.6670113  71.6224913  55.2618903  22.8810113  72.1494913  55.9238903
  23.4340113  71.4484913  54.8828903  22.8120113  71.6744913  55.3038903
  15.6350113  56.2054913  60.8608903  15.1140113  55.5774913  60.5528903
  16.2260113  55.7684913  61.3318903  15.6460113  56.0474913  60.8848903
  18.9410113  58.3384913  70.1588903  19.0580113  57.8844913  69.4228903
  19.2290113  59.1364913  69.9558903  19.0010113  58.3894913  70.0198903
  14.0610113  69.7684913  56.2008903  14.7170113  69.1934913  56.2158903
  14.4500113  70.5174913  55.9798903  14.2160113  69.7934913  56.1708903
  25.1060113  71.6324913  63.5668903  25.8500113  72.0884913  63.5568903
  24.9850113  71.4184913  62.7298903  25.1980113  71.6684913  63.4418903
  14.6740113  57.9354913  69.1428903  13.8960113  57.5454913  69.0708903
  15.1650113  57.5234913  68.5518903  14.6310113  57.8164913  69.0448903
  14.8790113  68.2554913  59.7008903  15.3020113  67.8994913  59.0268903
  15.2030113  67.8334913  60.3928903  14.9890113  68.1404913  59.7038903
  18.1100113  71.1074913  58.9968903  18.9540113  71.2114913  58.8018903
  17.8130113  71.9254913  59.0648903  18.1910113  71.2434913  58.9778903
  21.3230113  55.5784913  68.3108903  21.5010113  54.7694913  68.0358903
  21.1800113  56.0194913  67.5718903  21.3280113  55.5244913  68.1608903
  21.9170113  60.5044913  57.0838903  22.2040113  60.2724913  56.2938903
  22.6490113  60.5834913  57.5528903  22.0670113  60.4814913  57.0368903
  22.6390113  60.8434913  52.2048903  22.9200113  61.6314913  52.4538903
  21.8630113  61.0084913  51.8418903  22.5660113  60.9844913  52.1878903
  26.6800113  72.8174913  53.6718903  27.3450113  72.6694913  53.1268903
  27.0400113  72.7344913  54.4618903  26.8320113  72.7834913  53.7078903
  17.1080113  72.3264913  64.7368903  17.4000113  72.2594913  65.5568903
  16.4820113  71.7214913  64.6918903  17.0590113  72.2274913  64.8518903
  12.0220113  58.4834913  66.7288903  12.0180113  59.0704913  67.3748903
  12.6160113  58.7954913  66.1718903  12.1090113  58.6164913  66.7418903
  24.3600113  68.8174913  67.2708903  24.3260113  69.1994913  68.0548903
  25.2140113  68.7754913  67.0998903  24.4810113  68.8674913  67.3618903
  21.4980113  69.0144913  52.0208903  21.3170113  69.5594913  52.6778903
  22.2640113  69.3044913  51.7198903  21.5840113  69.1384913  52.0738903
  12.9590113  58.0784913  55.6438903  12.8450113  57.2144913  55.6748903
  12.4840113  58.3724913  56.3138903  12.8720113  57.9944913  55.7468903
  15.1010113  70.4884913  63.8588903  14.4030113  69.9804913  63.9848903
  15.3610113  70.2834913  63.0508903  15.0360113  70.3834913  63.7578903
  22.2630113  59.2864913  54.3888903  21.7550113  58.6244913  54.1348903
  22.3150113  59.7904913  53.6788903  22.1960113  59.2634913  54.2468903
  22.8120113  71.9814913  64.7688903  23.5800113  71.9014913  64.3628903
  22.2290113  71.8604913  64.1308903  22.8390113  71.9514913  64.6148903
  22.2630113  56.2274913  54.2798903  21.8080113  55.8254913  53.6538903
  23.0360113  56.3824913  53.9048903  22.3100113  56.1914913  54.1318903
  29.0890113  72.5844913  57.6698903  28.6340113  73.3014913  57.8708903
  28.4750113  72.0134913  57.4278903  28.9310113  72.6064913  57.6638903
  20.8610113  58.5944913  58.8018903  20.9350113  59.1624913  58.1438903
  20.9820113  59.0864913  59.5118903  20.8890113  58.7514913  58.8098903
  26.0860113  68.4294913  57.2138903  26.7870113  67.9474913  57.4028903
  25.4260113  67.8604913  57.2588903  26.0920113  68.2744913  57.2478903
  16.4620113  69.3394913  66.4258903  17.3030113  69.4024913  66.2038903
  16.4250113  69.7364913  67.2018903  16.5810113  69.4074913  66.5078903
  15.4690113  54.4174913  57.1498903  16.0050113  55.1054913  57.1398903
  15.4720113  54.1434913  56.3218903  15.5480113  54.4784913  57.0258903
  18.4250113  64.8504913  61.1748903  18.5970113  64.6404913  62.0038903
  17.7700113  64.3164913  60.9588903  18.3540113  64.7404913  61.2658903
  24.6530113  58.7644913  64.6898903  24.5580113  59.0834913  65.4958903
  24.0600113  58.1254913  64.6518903  24.5510113  58.7164913  64.8038903
  19.1750113  64.7884913  63.7648903  19.2280113  65.6354913  63.9668903
  18.8900113  64.4184913  64.5018903  19.1410113  64.8584913  63.9028903
  25.3520113  65.4834913  62.8948903  24.8380113  65.0714913  63.4658903
  25.2260113  66.3274913  63.0758903  25.2580113  65.5474913  63.0058903
  11.9960113  69.1594913  69.9758903  12.7520113  69.5084913  70.2338903
  12.1730113  68.3064913  69.9188903  12.1340113  69.0844913  70.0058903
  28.3730113  58.9444913  65.8338903  29.1450113  58.7194913  66.1708903
  27.8980113  59.1614913  66.5338903  28.4170113  58.9434913  65.9868903
  15.9170113  58.2274913  58.8038903  16.1890113  57.7974913  58.0958903
  15.7410113  57.5914913  59.3748903  15.9310113  58.0704913  58.7838903
  15.7410113  65.6544913  58.3528903  16.5920113  65.5744913  58.1798903
  15.3840113  64.9724913  57.9408903  15.8140113  65.5414913  58.2658903
  14.5080113  72.3794913  59.5898903  13.8350113  71.8814913  59.3448903
  14.9110113  72.5644913  58.8388903  14.4680113  72.3334913  59.4428903
  14.0580113  59.3294913  61.8858903  14.9010113  59.5494913  61.8428903
  13.6690113  59.9024913  61.3548903  14.1250113  59.4464913  61.8008903
  30.8390113  70.4314913  67.2758903  30.1570113  70.7414913  66.8288903
  30.4700113  69.9734913  67.9208903  30.6830113  70.4094913  67.3048903
  18.1090113  65.6614913  56.5878903  18.8220113  66.1564913  56.6778903
  18.3310113  65.0944913  55.9618903  18.2470113  65.6504913  56.5088903
  12.2650113  67.3044913  59.9078903  11.5980113  67.7924913  60.1838903
  12.9450113  67.8494913  59.9368903  12.2670113  67.4564913  59.9528903
  19.9120113  61.0144913  70.0038903  19.4280113  61.5914913  70.4458903
  19.8840113  61.3094913  69.1828903  19.8360113  61.1434913  69.9478903
  31.0100113  61.6984913  64.6158903  31.2250113  60.8984913  64.3398903
  30.1600113  61.7584913  64.4268903  30.9160113  61.5894913  64.5468903
  12.3310113  63.9884913  55.0108903  12.1460113  63.1494913  55.1628903
  12.9900113  63.9524913  54.4408903  12.4010113  63.8594913  54.9488903
  22.6320113  69.3644913  58.9148903  22.1090113  69.9984913  58.6218903
  22.9420113  69.0004913  58.1858903  22.6000113  69.4044913  58.7638903
  12.5030113  68.1524913  54.5858903  13.0550113  68.7214913  54.9498903
  12.2710113  67.6374913  55.2508903  12.5500113  68.1604913  54.7378903
  16.7070113  67.1524913  61.6748903  17.1740113  67.4414913  62.3528903
  17.2790113  66.6744913  61.2208903  16.8610113  67.1244913  61.7078903
  12.3330113  66.6014913  52.2138903  13.0890113  66.1694913  52.2718903
  12.3480113  67.1334913  52.9048903  12.4470113  66.6164913  52.3248903
  13.2730113  64.8224913  60.2188903  13.7040113  64.6934913  59.4718903
  13.0680113  65.6704913  60.1928903  13.3060113  64.9284913  60.1048903
  19.6190113  58.3864913  53.8688903  19.6170113  58.2694913  53.0038903
  19.4380113  59.2344913  53.9608903  19.5920113  58.4944913  53.7548903
  28.6730113  70.8134913  65.3658903  28.0020113  71.3274913  65.5838903
  28.7360113  70.9134913  64.5018903  28.5830113  70.9044913  65.2708903
  17.3570113  68.3384913  58.5008903  17.4830113  69.1814913  58.6878903
  18.0250113  67.9394913  58.8968903  17.4750113  68.4044913  58.5868903
  15.4870113  61.8214913  68.3628903  14.9510113  61.3154913  68.8308903
  15.5070113  61.4314913  67.5828903  15.4100113  61.6884913  68.3168903
  15.9720113  61.2184913  53.5028903  15.8440113  60.7704913  54.2408903
  15.3900113  60.8764913  52.9508903  15.8670113  61.1014913  53.5308903
  16.1390113  63.0484913  60.1018903  15.3580113  62.9894913  59.7188903
  16.2110113  62.2964913  60.5388903  16.0340113  62.9294913  60.1098903
  16.5690113  62.7854913  63.5698903  16.5940113  62.1104913  63.0188903
  15.9230113  63.2814913  63.2578903  16.4780113  62.7584913  63.4428903
  26.4640113  60.4984913  61.9658903  25.8020113  60.8264913  62.4288903
  26.6510113  61.1324913  61.3968903  26.3940113  60.6404913  61.9498903
  20.6690113  71.5624913  62.9618903  20.3920113  70.9214913  62.4388903
  20.4610113  72.2884913  62.5238903  20.5980113  71.5754913  62.8198903
  23.1090113  56.4044913  65.3948903  23.2580113  55.5794913  65.1518903
  23.4880113  56.4594913  66.1788903  23.1870113  56.2904913  65.4748903
  14.3680113  64.1404913  69.1288903  14.3310113  64.6414913  68.4148903
  14.6990113  63.3884913  68.8338903  14.4110113  64.1024913  68.9798903
  25.9710113  66.3454913  67.3868903  26.4550113  67.0634913  67.4848903
  26.3650113  65.9184913  66.7358903  26.1010113  66.3884913  67.3048903
  20.2670113  69.1904913  68.5638903  20.6210113  69.0124913  69.3408903
  19.8310113  68.4614913  68.3648903  20.2550113  69.0564913  68.6498903
  21.2390113  59.9374913  61.2018903  21.7190113  60.6364913  61.4098903
  21.6120113  59.2904913  61.6528903  21.3650113  59.9454913  61.2988903
  24.4450113  70.0424913  61.3008903  23.8420113  69.7464913  60.7438903
  24.9900113  70.4944913  60.7918903  24.4360113  70.0654913  61.1428903
  24.4580113  66.8934913  60.7008903  23.6610113  67.1174913  60.9748903
  24.7160113  66.2994913  61.2858903  24.3780113  66.8384913  60.8278903
  18.3500113  71.7054913  55.1488903  18.2030113  70.9294913  55.5198903
  19.0390113  71.5584913  54.6338903  18.4300113  71.5684913  55.1278903
  18.0210113  55.4484913  53.1368903  18.1180113  55.3414913  53.9978903
  17.3130113  55.9544913  53.0718903  17.9310113  55.5074913  53.2548903
  20.6420113  71.2214913  53.5508903  21.2640113  71.3844913  54.1408903
  20.6780113  71.9124913  53.0188903  20.7390113  71.3474913  53.5598903
  27.7180113  64.8914913  65.5468903  27.7730113  65.0164913  64.6848903
  28.4710113  65.2114913  65.8488903  27.8370113  64.9564913  65.4638903
  23.9090113  70.2404913  69.8238903  24.0730113  70.5234913  70.6328903
  24.1720113  70.9014913  69.3188903  23.9720113  70.3804913  69.8688903
  28.7500113  55.1894913  68.5338903  28.1130113  54.7894913  68.0918903
  28.7760113  54.7584913  69.2918903  28.6600113  55.0674913  68.5798903
  15.1430113  63.7554913  54.3798903  15.4670113  62.9764913  54.1578903
  15.7890113  64.1234913  54.8348903  15.2860113  63.6944913  54.4138903
  23.4490113  64.6974913  65.1468903  23.2940113  65.3074913  65.7508903
  23.9830113  64.1394913  65.5528903  23.5050113  64.7054913  65.2958903
  12.1400113  55.4164913  55.3478903  12.2690113  54.7084913  54.8558903
  11.7730113  55.0984913  56.0728903  12.1050113  55.2644913  55.3828903
  21.8330113  63.0974913  55.8048903  21.8920113  63.7474913  56.3838903
  21.6440113  62.4014913  56.2958903  21.8140113  63.0904913  55.9628903
  27.0590113  67.4264913  61.6738903  26.5800113  67.7244913  61.0078903
  26.7030113  66.6504913  61.8518903  26.9360113  67.3554913  61.6018903
  16.3290113  57.6144913  52.3168903  15.8180113  57.6674913  51.6108903
  17.1130113  57.8544913  52.0208903  16.3690113  57.6574913  52.1688903
  21.0560113  65.1444913  60.2358903  20.2090113  64.9504913  60.3168903
  21.3800113  64.9794913  61.0288903  20.9780113  65.0914913  60.3648903
  17.8080113  71.8744913  51.1218903  18.2470113  71.1774913  51.4098903
  18.0150113  72.4984913  51.6948903  17.9040113  71.8634913  51.2488903
  14.9040113  64.8374913  62.5518903  15.6260113  65.3254913  62.5148903
  14.6340113  64.8074913  61.7228903  14.9710113  64.9054913  62.4238903
  18.1340113  60.0084913  59.2868903  18.9800113  59.8184913  59.3848903
  17.7640113  59.2314913  59.1488903  18.2040113  59.8654913  59.2808903
  30.7510113  71.5924913  53.6138903  31.4450113  71.1254913  53.3658903
  30.2120113  70.9944913  53.9508903  30.7740113  71.4344913  53.6268903
  12.9550113  61.3464913  55.9418903  13.4440113  61.0544913  56.6028903
  13.0840113  60.7534913  55.3148903  13.0460113  61.2154913  55.9468903
  27.9900113  64.3684913  62.7928903  27.9830113  63.5924913  63.1908903
  27.1490113  64.6024913  62.7858903  27.8650113  64.2884913  62.8508903
  17.4800113  62.7804913  51.4278903  16.8700113  62.3754913  51.9018903
  17.0940113  62.8984913  50.6548903  17.3330113  62.7374913  51.3838903
  14.2990113  65.8894913  66.8298903  13.8780113  65.3714913  66.2688903
  13.9470113  66.6754913  66.6868903  14.1850113  65.9294913  66.7258903
  29.2460113  64.4394913  60.2298903  28.9600113  64.8404913  60.9498903
  30.1060113  64.3774913  60.3568903  29.3310113  64.4894913  60.3548903
  18.9350113  61.2414913  54.1378903  19.2070113  62.0674913  54.2048903
  18.0720113  61.3164913  54.0418903  18.8480113  61.3744913  54.1328903
  26.9080113  58.3634913  68.7698903  26.3830113  58.8224913  69.2938903
  26.5470113  57.5684913  68.7638903  26.7770113  58.3134913  68.8458903
  12.4150113  57.2114913  60.6738903  12.4590113  57.5554913  59.8728903
  13.1700113  57.4484913  61.0408903  12.5330113  57.2974913  60.6098903
  30.3770113  70.0724913  60.7588903  30.6670113  70.3294913  59.9778903
  31.0720113  70.1684913  61.2778903  30.5230113  70.1244913  60.7198903
  25.4000113  61.9324913  68.8458903  25.4730113  62.0364913  69.7088903
  24.7660113  62.4904913  68.6248903  25.3170113  62.0304913  68.9408903
  27.6680113  62.2514913  67.2108903  27.9870113  63.0374913  67.4138903
  27.2980113  61.9814913  67.9538903  27.6610113  62.3274913  67.3508903
  30.3660113  62.7934913  69.9458903  30.3140113  62.4524913  69.1448903
  31.1030113  63.2604913  69.9238903  30.4670113  62.8124913  69.8238903
  29.9040113  66.4694913  66.1518903  30.5320113  65.9204913  65.8958903
  29.8430113  67.0344913  65.4898903  29.9880113  66.4724913  66.0158903
  24.3560113  66.5504913  52.1438903  25.0400113  66.0364913  51.9748903
  23.9390113  66.5964913  51.3788903  24.3950113  66.4814913  52.0058903
  19.0380113  67.7004913  63.4478903  18.7400113  68.2924913  64.0148903
  19.0930113  68.1424913  62.6988903  19.0020113  67.8534913  63.4208903
  17.0170113  66.6504913  66.8458903  16.2110113  66.3604913  67.0128903
  16.9280113  67.5184913  66.8518903  16.8850113  66.7354913  66.8708903
  26.3760113  56.8394913  65.8608903  27.1200113  57.2914913  65.7978903
  25.8100113  57.3094913  65.3918903  26.4030113  56.9764913  65.7828903
  21.5540113  64.1234913  62.9388903  22.0300113  64.4974913  63.5668903
  20.7310113  64.2574913  63.1978903  21.5030113  64.1984913  63.0698903
  18.2640113  59.7264913  65.6798903  18.4250113  58.9824913  66.1068903
  18.2190113  59.4774913  64.8448903  18.2810113  59.5794913  65.6198903
  20.8180113  71.5164913  58.1668903  21.3640113  72.1954913  58.2208903
  20.4680113  71.5984913  57.3718903  20.8470113  71.6294913  58.0568903
  27.6610113  54.8194913  63.5308903  27.3810113  55.6444913  63.4868903
  28.3770113  54.8724913  64.0268903  27.7260113  54.9494913  63.5978903
  20.0160113  55.5344913  65.5598903  20.7210113  55.8544913  65.1578903
  20.2570113  54.7274913  65.7868903  20.1550113  55.4624913  65.5338903
  19.0010113  69.7444913  61.5558903  18.3770113  70.3264913  61.3738903
  19.2490113  69.4584913  60.7698903  18.9450113  69.7884913  61.4128903
  23.3100113  66.3784913  68.5448903  24.0670113  66.6644913  68.2188903
  22.7630113  66.4304913  67.8668903  23.3410113  66.4284913  68.3958903
  27.2190113  68.9284913  67.0488903  27.5650113  69.1984913  67.8028903
  27.5130113  69.5104913  66.4688903  27.3140113  69.0544913  67.0748903
  20.5950113  64.5204913  51.4708903  19.7900113  64.3434913  51.1858903
  20.5620113  65.3714913  51.6628903  20.4710113  64.6194913  51.4578903
  16.5250113  60.5874913  61.6208903  16.9650113  60.4844913  60.8748903
  17.0700113  60.2744913  62.2258903  16.6700113  60.5264913  61.5998903
  24.5410113  59.6894913  67.2128903  23.8930113  60.1594913  67.5608903
  25.1060113  59.6004913  67.8718903  24.5290113  59.7454913  67.3618903
  24.2290113  61.2264913  63.5108903  24.5310113  61.6464913  64.2138903
  24.2650113  60.3864913  63.7428903  24.2790113  61.1644913  63.6488903
  21.6540113  71.3934913  67.4358903  22.1320113  70.7934913  67.0198903
  21.3030113  70.9504913  68.1008903  21.6730113  71.2394913  67.4728903
  20.0720113  55.5724913  61.6678903  19.2460113  55.4234913  61.9048903
  20.0320113  55.6074913  60.7968903  19.9440113  55.5554913  61.5738903
  21.7130113  66.6124913  66.4558903  20.9180113  66.5484913  66.8068903
  21.7840113  67.4594913  66.2608903  21.6060113  66.7274913  66.4788903
  12.6370113  55.9704913  67.7028903  12.4970113  56.7654913  67.3718903
  11.8510113  55.7274913  67.9918903  12.5000113  56.0524913  67.6968903
  17.5430113  72.8194913  61.7728903  17.5540113  72.8784913  62.6428903
  17.1180113  72.0724913  61.6228903  17.4820113  72.7174913  61.8788903
  15.7010113  58.7144913  54.9278903  15.8270113  58.3854913  54.1298903
  14.8890113  58.4654913  55.1268903  15.6000113  58.6294913  54.8398903
  24.4580113  65.8674913  57.9718903  24.5340113  66.2084913  58.7708903
  24.6270113  65.0204913  58.0928903  24.4940113  65.7924913  58.1078903
  21.9800113  65.1414913  57.5368903  21.6820113  64.8264913  58.2938903
  22.6750113  65.6144913  57.7718903  22.0390113  65.1644913  57.6838903
  22.2020113  69.2594913  65.5638903  22.8890113  69.1454913  66.0888903
  22.3360113  70.0504913  65.2198903  22.3230113  69.3594913  65.5908903
  30.3780113  61.8684913  67.3748903  29.5230113  61.7464913  67.5008903
  30.5310113  61.4734913  66.6118903  30.2740113  61.7914913  67.2808903
  24.8910113  62.5334913  65.9508903  24.6360113  61.8144913  66.3728903
  25.7120113  62.6494913  66.2208903  24.9750113  62.4444913  66.0528903
  14.3070113  72.3174913  67.2148903  13.6530113  71.7484913  67.3128903
  13.9320113  73.0904913  67.3658903  14.1550113  72.3474913  67.2518903
  22.8250113  63.7234913  69.1378903  23.1480113  64.4094913  68.7058903
  22.1210113  64.0464913  69.5398903  22.7680113  63.8724913  69.1328903
  25.9090113  72.0974913  60.0668903  25.4580113  72.7404913  60.4458903
  26.6170113  72.0184913  60.5718903  25.9470113  72.1804913  60.1978903
  22.6100113  67.1874913  62.9968903  21.9160113  67.5894913  63.3398903
  23.2870113  67.6204913  63.3358903  22.6070113  67.3104913  63.0978903
  27.9870113  69.7804913  69.5768903  28.7630113  69.3904913  69.6598903
  27.5180113  69.4444913  70.2318903  28.0320113  69.6734913  69.6858903
  15.6780113  60.7254913  65.3438903  16.0530113  61.3444913  64.8568903
  16.3520113  60.2514913  65.6288903  15.8330113  60.7474913  65.3138903
  13.4530113  59.1734913  64.6188903  13.5300113  59.0044913  63.7658903
  14.1990113  59.5794913  64.8158903  13.5740113  59.2084913  64.5218903
  16.0070113  56.5834913  67.0298903  15.9260113  55.7394913  67.2358903
  15.6930113  56.6274913  66.2168903  15.9490113  56.4654913  66.9398903
  22.9320113  68.7784913  56.1658903  22.7270113  69.6114913  56.0068903
  22.1570113  68.3964913  56.2878903  22.7870113  68.8454913  56.1608903
  28.1140113  61.9594913  64.4148903  28.1120113  61.0964913  64.5388903
  28.1810113  62.2834913  65.2218903  28.1240113  61.8794913  64.5518903
  12.8500113  64.3994913  64.8428903  13.1700113  64.6184913  64.0618903
  12.7500113  63.5344913  64.7878903  12.8820113  64.3044913  64.7198903
  14.3060113  60.3354913  51.4608903  13.6340113  60.3494913  52.0168903
  14.4010113  59.4874913  51.2768903  14.2210113  60.2124913  51.5158903
  23.9930113  56.7594913  68.1968903  24.0850113  57.4714913  68.6908903
  23.3560113  56.3144913  68.5938903  23.9120113  56.7984913  68.3288903
  22.9870113  56.9494913  59.0508903  22.2870113  57.4674913  58.9948903
  23.0250113  56.5694913  58.2668903  22.8890113  56.9704913  58.9268903
  18.2940113  69.0404913  52.5748903  18.7350113  69.1204913  53.3228903
  17.4890113  68.8244913  52.8328903  18.2400113  69.0204913  52.7238903
  26.5850113  57.4654913  61.8508903  27.4400113  57.5644913  61.9958903
  26.2160113  58.0184913  62.4158903  26.6570113  57.5624913  61.9558903
  17.6130113  63.6914913  66.2278903  17.2170113  64.4654913  66.3028903
  17.2070113  63.3184913  65.5518903  17.4950113  63.7504913  66.1388903
  26.8890113  62.7454913  60.3418903  27.5550113  63.2864913  60.5018903
  26.5440113  63.0564913  59.6028903  26.9360113  62.8714913  60.2568903
  27.2020113  70.8114913  56.1488903  27.0280113  70.1574913  56.6988903
  27.9150113  70.5404913  55.7258903  27.2820113  70.6744913  56.1678903
  15.6230113  68.1104913  53.1758903  15.3790113  67.8034913  53.9558903
  15.5900113  67.4074913  52.6598903  15.5820113  67.9614913  53.2148903
  18.4420113  66.3554913  51.9188903  17.6240113  66.0874913  52.0588903
  18.4140113  67.2074913  52.1038903  18.3170113  66.4424913  51.9668903
  18.0420113  56.6684913  63.6778903  17.1780113  56.7524913  63.7578903
  18.2620113  56.1544913  64.3468903  17.9470113  56.6054913  63.7888903
  22.1450113  57.4164913  62.0518903  21.4080113  56.9624913  62.1648903
  22.7160113  57.0144913  62.5748903  22.1200113  57.2894913  62.1458903
  24.8770113  68.2644913  63.8398903  25.0830113  68.5654913  64.6318903
  24.8160113  68.9864913  63.3548903  24.8980113  68.4154913  63.8848903
  24.4110113  72.4784913  68.0858903  23.6580113  72.4604913  67.6448903
  24.5790113  73.3304913  68.1698903  24.3250113  72.6014913  68.0328903
  19.6480113  61.7454913  67.2558903  19.3260113  61.1694913  66.6858903
  19.2890113  62.5004913  67.0098903  19.5480113  61.7714913  67.1358903
  29.6890113  66.9034913  63.2978903  29.6570113  66.0414913  63.1628903
  28.9960113  67.2054913  62.8638903  29.5820113  66.8204913  63.2138903
  18.0830113  72.1014913  67.5038903  18.1240113  72.2274913  68.3668903
  18.7340113  71.5414913  67.3478903  18.1850113  72.0374913  67.6088903
  27.7940113  70.1634913  62.0948903  28.3210113  70.0804913  61.4038903
  27.4030113  69.3854913  62.1488903  27.8140113  70.0364913  62.0008903
  15.2620113  56.7514913  64.3258903  14.9190113  55.9844913  64.0918903
  14.5670113  57.2754913  64.3898903  15.1090113  56.7154913  64.3008903
  24.3080113  55.6074913  61.3028903  24.9780113  56.1514913  61.4298903
  23.8050113  56.0314913  60.7298903  24.3330113  55.7504913  61.2368903
  15.6760113  70.4844913  68.8638903  16.2710113  70.9154913  69.3358903
  15.3120113  71.1084913  68.3748903  15.7100113  70.6404913  68.8608903
  23.6670113  61.4154913  58.7958903  24.2180113  60.8084913  59.0958903
  23.2420113  61.6784913  59.5108903  23.6860113  61.3644913  58.9448903
  13.9150113  60.0654913  58.2818903  13.5470113  60.3674913  59.0128903
  14.4490113  59.4364913  58.5658903  13.9390113  60.0174913  58.4318903
  13.6030113  68.4734913  65.7928903  13.0290113  68.8894913  66.3018903
  14.3360113  68.9384913  65.8878903  13.6270113  68.6034913  65.8818903
  15.3890113  71.7404913  54.5678903  15.2440113  71.8964913  53.7218903
  16.2550113  71.8194913  54.6458903  15.4960113  71.7754913  54.4548903
  19.5560113  64.1374913  54.2958903  19.6560113  64.2764913  53.4408903
  20.3740113  64.0774913  54.5918903  19.6910113  64.1484913  54.2128903
  28.7160113  72.2014913  51.7758903  29.3530113  72.0674913  52.3568903
  28.3750113  71.4074913  51.6588903  28.7600113  72.0644913  51.8438903
  28.9110113  64.6194913  68.5088903  29.5450113  64.4494913  69.0828903
  29.3280113  65.0224913  67.8568903  29.0660113  64.6544913  68.4978903
  24.7910113  68.4664913  54.0978903  24.5400113  68.3384913  54.9238903
  24.4740113  67.7714913  53.6768903  24.7070113  68.3454913  54.1578903
  29.5360113  59.1834913  69.2468903  29.3400113  59.8274913  69.8018903
  28.8140113  58.6934913  69.2388903  29.4010113  59.2064913  69.3278903
  29.4350113  60.1244913  62.2178903  28.6020113  60.3744913  62.1458903
  29.3790113  59.2844913  62.4468903  29.3040113  60.0374913  62.2408903
  18.6950113  57.1124913  67.4118903  18.9290113  56.5364913  66.7988903
  17.8530113  56.9314913  67.5528903  18.6050113  57.0004913  67.3418903
  26.3220113  64.7304913  69.8638903  27.1930113  64.6944913  69.8278903
  26.1030113  65.1504913  69.1318903  26.4190113  64.7864913  69.7508903
  16.0760113  70.5554913  61.0448903  15.9970113  69.7454913  60.7288903
  15.6320113  71.0424913  60.4728903  15.9990113  70.5074913  60.9138903
  21.6770113  66.6744913  53.5278903  22.3940113  66.3274913  53.1718903
  21.6430113  67.4744913  53.1798903  21.7780113  66.7414913  53.4238903
  13.6480113  72.7994913  64.6258903  14.1410113  72.7434913  65.3438903
  13.8360113  72.0664913  64.1908903  13.7490113  72.6824913  64.6678903
  22.8950113  62.2314913  42.4376493  22.3710113  62.8274913  42.8006493
  23.2920113  61.8634913  43.1216493  22.8760113  62.2654913  42.5926493
  12.7640113  66.3714913  37.8936493  12.3230113  66.4894913  38.6366493
  12.4810113  65.5964913  37.6086493  12.6570113  66.2744913  37.9616493
  12.5070113  60.1634913  34.4006493  11.7290113  60.3254913  34.0406493
  12.5460113  59.2924913  34.4226493  12.3980113  60.0584913  34.3506493
  15.6460113  65.4264913  33.0726493  15.2540113  65.0554913  32.3866493
  15.5660113  64.8284913  33.7016493  15.5760113  65.2834913  33.0636493
  15.2730113  67.0674913  36.9726493  15.8810113  66.8974913  37.5756493
  14.5220113  66.9274913  37.3936493  15.2520113  67.0214913  37.1236493
  14.1640113  70.1584913  33.0496493  14.6310113  70.2424913  32.3176493
  14.6190113  69.5804913  33.5186493  14.3000113  70.0854913  33.0106493
  12.7040113  69.1064913  44.1486493  12.8330113  68.8264913  44.9646493
  12.0940113  68.5654913  43.8396493  12.6330113  68.9854913  44.2236493
  19.2780113  66.6314913  49.2156493  19.0420113  66.6284913  50.0556493
  18.5300113  66.4834913  48.7916493  19.1320113  66.6084913  49.2766493
  14.1500113  63.6274913  38.3506493  13.6880113  63.2354913  37.7236493
  14.8500113  63.1144913  38.4426493  14.1850113  63.4944913  38.2716493
  18.6580113  59.2374913  43.6976493  19.3360113  59.2554913  43.1486493
  18.6130113  58.4014913  43.9426493  18.7510113  59.1164913  43.6526493
  19.2600113  69.8234913  46.4786493  19.3980113  70.5834913  46.0716493
  20.0510113  69.4584913  46.5056493  19.3970113  69.8824913  46.4226493
  16.1510113  61.7274913  38.3736493  16.9680113  61.5404913  38.6166493
  15.6740113  61.1134913  38.7696493  16.2010113  61.6094913  38.4686493
  20.3550113  67.7084913  40.9836493  20.7030113  66.9094913  41.0136493
  21.0200113  68.2124913  40.7286493  20.5050113  67.6644913  40.9506493
  20.4120113  67.1574913  37.1946493  20.7430113  66.5134913  37.6806493
  20.6520113  66.9464913  36.3836493  20.4960113  67.0314913  37.1466493
  22.3800113  61.2884913  48.5336493  21.5320113  61.1894913  48.3556493
  22.4090113  62.0334913  48.9876493  22.2590113  61.3844913  48.5746493
  12.6060113  61.3884913  41.3636493  12.3500113  62.2194913  41.2886493
  11.9420113  61.0054913  41.7806493  12.4700113  61.4544913  41.4146493
  12.5160113  71.0984913  39.2636493  11.9240113  71.6564913  38.9506493
  12.9420113  70.8294913  38.5516493  12.4920113  71.1404913  39.1126493
  18.3560113  68.9424913  36.7436493  17.7770113  68.6674913  37.3356493
  18.9800113  68.3334913  36.7686493  18.3630113  68.8124913  36.8346493
  24.4990113  71.2304913  34.2656493  25.2260113  71.7024913  34.3676493
  24.7280113  70.4364913  34.5456493  24.6410113  71.1834913  34.3226493
  22.6670113  71.6224913  36.2556493  22.8810113  72.1494913  36.9176493
  23.4340113  71.4484913  35.8766493  22.8120113  71.6744913  36.2976493
  18.9410113  58.3384913  51.1526493  19.0580113  57.8844913  50.4166493
  19.2290113  59.1364913  50.9496493  19.0010113  58.3894913  51.0136493
  14.0610113  69.7684913  37.1946493  14.7170113  69.1934913  37.2096493
  14.4500113  70.5174913  36.9736493  14.2160113  69.7934913  37.1646493
  25.1060113  71.6324913  44.5606493  25.8500113  72.0884913  44.5506493
  24.9850113  71.4184913  43.7236493  25.1980113  71.6684913  44.4356493
  14.6740113  57.9354913  50.1366493  13.8960113  57.5454913  50.0646493
  15.1650113  57.5234913  49.5456493  14.6310113  57.8164913  50.0386493
  14.8790113  68.2554913  40.6946493  15.3020113  67.8994913  40.0206493
  15.2030113  67.8334913  41.3866493  14.9890113  68.1404913  40.6976493
  18.1100113  71.1074913  39.9906493  18.9540113  71.2114913  39.7956493
  17.8130113  71.9254913  40.0586493  18.1910113  71.2434913  39.9716493
  26.6800113  72.8174913  34.6656493  27.3450113  72.6694913  34.1206493
  27.0400113  72.7344913  35.4556493  26.8320113  72.7834913  34.7016493
  17.1080113  72.3264913  45.7306493  17.4000113  72.2594913  46.5506493
  16.4820113  71.7214913  45.6856493  17.0590113  72.2274913  45.8456493
  12.0220113  58.4834913  47.7226493  12.0180113  59.0704913  48.3686493
  12.6160113  58.7954913  47.1656493  12.1090113  58.6164913  47.7356493
  24.3600113  68.8174913  48.2646493  24.3260113  69.1994913  49.0486493
  25.2140113  68.7754913  48.0936493  24.4810113  68.8674913  48.3556493
  12.9590113  58.0784913  36.6376493  12.8450113  57.2144913  36.6686493
  12.4840113  58.3724913  37.3076493  12.8720113  57.9944913  36.7406493
  15.1010113  70.4884913  44.8526493  14.4030113  69.9804913  44.9786493
  15.3610113  70.2834913  44.0446493  15.0360113  70.3834913  44.7516493
  22.8120113  71.9814913  45.7626493  23.5800113  71.9014913  45.3566493
  22.2290113  71.8604913  45.1246493  22.8390113  71.9514913  45.6086493
  29.0890113  72.5844913  38.6636493  28.6340113  73.3014913  38.8646493
  28.4750113  72.0134913  38.4216493  28.9310113  72.6064913  38.6576493
  16.4620113  69.3394913  47.4196493  17.3030113  69.4024913  47.1976493
  16.4250113  69.7364913  48.1956493  16.5810113  69.4074913  47.5016493
  18.4250113  64.8504913  42.1686493  18.5970113  64.6404913  42.9976493
  17.7700113  64.3164913  41.9526493  18.3540113  64.7404913  42.2596493
  19.1750113  64.7884913  44.7586493  19.2280113  65.6354913  44.9606493
  18.8900113  64.4184913  45.4956493  19.1410113  64.8584913  44.8966493
  11.9960113  69.1594913  50.9696493  12.7520113  69.5084913  51.2276493
  12.1730113  68.3064913  50.9126493  12.1340113  69.0844913  50.9996493
  15.9170113  58.2274913  39.7976493  16.1890113  57.7974913  39.0896493
  15.7410113  57.5914913  40.3686493  15.9310113  58.0704913  39.7776493
  15.7410113  65.6544913  39.3466493  16.5920113  65.5744913  39.1736493
  15.3840113  64.9724913  38.9346493  15.8140113  65.5414913  39.2596493
  14.5080113  72.3794913  40.5836493  13.8350113  71.8814913  40.3386493
  14.9110113  72.5644913  39.8326493  14.4680113  72.3334913  40.4366493
  14.0580113  59.3294913  42.8796493  14.9010113  59.5494913  42.8366493
  13.6690113  59.9024913  42.3486493  14.1250113  59.4464913  42.7946493
  30.8390113  70.4314913  48.2696493  30.1570113  70.7414913  47.8226493
  30.4700113  69.9734913  48.9146493  30.6830113  70.4094913  48.2986493
  18.1090113  65.6614913  37.5816493  18.8220113  66.1564913  37.6716493
  18.3310113  65.0944913  36.9556493  18.2470113  65.6504913  37.5026493
  12.2650113  67.3044913  40.9016493  11.5980113  67.7924913  41.1776493
  12.9450113  67.8494913  40.9306493  12.2670113  67.4564913  40.9466493
  19.9120113  61.0144913  50.9976493  19.4280113  61.5914913  51.4396493
  19.8840113  61.3094913  50.1766493  19.8360113  61.1434913  50.9416493
  12.3310113  63.9884913  36.0046493  12.1460113  63.1494913  36.1566493
  12.9900113  63.9524913  35.4346493  12.4010113  63.8594913  35.9426493
  22.6320113  69.3644913  39.9086493  22.1090113  69.9984913  39.6156493
  22.9420113  69.0004913  39.1796493  22.6000113  69.4044913  39.7576493
  12.5030113  68.1524913  35.5796493  13.0550113  68.7214913  35.9436493
  12.2710113  67.6374913  36.2446493  12.5500113  68.1604913  35.7316493
  16.7070113  67.1524913  42.6686493  17.1740113  67.4414913  43.3466493
  17.2790113  66.6744913  42.2146493  16.8610113  67.1244913  42.7016493
  12.3330113  66.6014913  33.2076493  13.0890113  66.1694913  33.2656493
  12.3480113  67.1334913  33.8986493  12.4470113  66.6164913  33.3186493
  13.2730113  64.8224913  41.2126493  13.7040113  64.6934913  40.4656493
  13.0680113  65.6704913  41.1866493  13.3060113  64.9284913  41.0986493
  19.6190113  58.3864913  34.8626493  19.6170113  58.2694913  33.9976493
  19.4380113  59.2344913  34.9546493  19.5920113  58.4944913  34.7486493
  28.6730113  70.8134913  46.3596493  28.0020113  71.3274913  46.5776493
  28.7360113  70.9134913  45.4956493  28.5830113  70.9044913  46.2646493
  17.3570113  68.3384913  39.4946493  17.4830113  69.1814913  39.6816493
  18.0250113  67.9394913  39.8906493  17.4750113  68.4044913  39.5806493
  15.4870113  61.8214913  49.3566493  14.9510113  61.3154913  49.8246493
  15.5070113  61.4314913  48.5766493  15.4100113  61.6884913  49.3106493
  15.9720113  61.2184913  34.4966493  15.8440113  60.7704913  35.2346493
  15.3900113  60.8764913  33.9446493  15.8670113  61.1014913  34.5246493
  16.1390113  63.0484913  41.0956493  15.3580113  62.9894913  40.7126493
  16.2110113  62.2964913  41.5326493  16.0340113  62.9294913  41.1036493
  16.5690113  62.7854913  44.5636493  16.5940113  62.1104913  44.0126493
  15.9230113  63.2814913  44.2516493  16.4780113  62.7584913  44.4366493
  20.6690113  71.5624913  43.9556493  20.3920113  70.9214913  43.4326493
  20.4610113  72.2884913  43.5176493  20.5980113  71.5754913  43.8136493
  14.3680113  64.1404913  50.1226493  14.3310113  64.6414913  49.4086493
  14.6990113  63.3884913  49.8276493  14.4110113  64.1024913  49.9736493
  20.2670113  69.1904913  49.5576493  20.6210113  69.0124913  50.3346493
  19.8310113  68.4614913  49.3586493  20.2550113  69.0564913  49.6436493
  21.2390113  59.9374913  42.1956493  21.7190113  60.6364913  42.4036493
  21.6120113  59.2904913  42.6466493  21.3650113  59.9454913  42.2926493
  24.4450113  70.0424913  42.2946493  23.8420113  69.7464913  41.7376493
  24.9900113  70.4944913  41.7856493  24.4360113  70.0654913  42.1366493
  18.3500113  71.7054913  36.1426493  18.2030113  70.9294913  36.5136493
  19.0390113  71.5584913  35.6276493  18.4300113  71.5684913  36.1216493
  20.6420113  71.2214913  34.5446493  21.2640113  71.3844913  35.1346493
  20.6780113  71.9124913  34.0126493  20.7390113  71.3474913  34.5536493
  23.9090113  70.2404913  50.8176493  24.0730113  70.5234913  51.6266493
  24.1720113  70.9014913  50.3126493  23.9720113  70.3804913  50.8626493
  15.1430113  63.7554913  35.3736493  15.4670113  62.9764913  35.1516493
  15.7890113  64.1234913  35.8286493  15.2860113  63.6944913  35.4076493
  23.4490113  64.6974913  46.1406493  23.2940113  65.3074913  46.7446493
  23.9830113  64.1394913  46.5466493  23.5050113  64.7054913  46.2896493
  12.1400113  55.4164913  36.3416493  12.2690113  54.7084913  35.8496493
  11.7730113  55.0984913  37.0666493  12.1050113  55.2644913  36.3766493
  16.3290113  57.6144913  33.3106493  15.8180113  57.6674913  32.6046493
  17.1130113  57.8544913  33.0146493  16.3690113  57.6574913  33.1626493
  21.0560113  65.1444913  41.2296493  20.2090113  64.9504913  41.3106493
  21.3800113  64.9794913  42.0226493  20.9780113  65.0914913  41.3586493
  17.8080113  71.8744913  32.1156493  18.2470113  71.1774913  32.4036493
  18.0150113  72.4984913  32.6886493  17.9040113  71.8634913  32.2426493
  14.9040113  64.8374913  43.5456493  15.6260113  65.3254913  43.5086493
  14.6340113  64.8074913  42.7166493  14.9710113  64.9054913  43.4176493
  18.1340113  60.0084913  40.2806493  18.9800113  59.8184913  40.3786493
  17.7640113  59.2314913  40.1426493  18.2040113  59.8654913  40.2746493
  30.7510113  71.5924913  34.6076493  31.4450113  71.1254913  34.3596493
  30.2120113  70.9944913  34.9446493  30.7740113  71.4344913  34.6206493
  12.9550113  61.3464913  36.9356493  13.4440113  61.0544913  37.5966493
  13.0840113  60.7534913  36.3086493  13.0460113  61.2154913  36.9406493
  17.4800113  62.7804913  32.4216493  16.8700113  62.3754913  32.8956493
  17.0940113  62.8984913  31.6486493  17.3330113  62.7374913  32.3776493
  14.2990113  65.8894913  47.8236493  13.8780113  65.3714913  47.2626493
  13.9470113  66.6754913  47.6806493  14.1850113  65.9294913  47.7196493
  18.9350113  61.2414913  35.1316493  19.2070113  62.0674913  35.1986493
  18.0720113  61.3164913  35.0356493  18.8480113  61.3744913  35.1266493
  12.4150113  57.2114913  41.6676493  12.4590113  57.5554913  40.8666493
  13.1700113  57.4484913  42.0346493  12.5330113  57.2974913  41.6036493
  30.3770113  70.0724913  41.7526493  30.6670113  70.3294913  40.9716493
  31.0720113  70.1684913  42.2716493  30.5230113  70.1244913  41.7136493
  19.0380113  67.7004913  44.4416493  18.7400113  68.2924913  45.0086493
  19.0930113  68.1424913  43.6926493  19.0020113  67.8534913  44.4146493
  17.0170113  66.6504913  47.8396493  16.2110113  66.3604913  48.0066493
  16.9280113  67.5184913  47.8456493  16.8850113  66.7354913  47.8646493
  21.5540113  64.1234913  43.9326493  22.0300113  64.4974913  44.5606493
  20.7310113  64.2574913  44.1916493  21.5030113  64.1984913  44.0636493
  18.2640113  59.7264913  46.6736493  18.4250113  58.9824913  47.1006493
  18.2190113  59.4774913  45.8386493  18.2810113  59.5794913  46.6136493
  20.8180113  71.5164913  39.1606493  21.3640113  72.1954913  39.2146493
  20.4680113  71.5984913  38.3656493  20.8470113  71.6294913  39.0506493
  19.0010113  69.7444913  42.5496493  18.3770113  70.3264913  42.3676493
  19.2490113  69.4584913  41.7636493  18.9450113  69.7884913  42.4066493
  23.3100113  66.3784913  49.5386493  24.0670113  66.6644913  49.2126493
  22.7630113  66.4304913  48.8606493  23.3410113  66.4284913  49.3896493
  27.2190113  68.9284913  48.0426493  27.5650113  69.1984913  48.7966493
  27.5130113  69.5104913  47.4626493  27.3140113  69.0544913  48.0686493
  16.5250113  60.5874913  42.6146493  16.9650113  60.4844913  41.8686493
  17.0700113  60.2744913  43.2196493  16.6700113  60.5264913  42.5936493
  21.6540113  71.3934913  48.4296493  22.1320113  70.7934913  48.0136493
  21.3030113  70.9504913  49.0946493  21.6730113  71.2394913  48.4666493
  21.7130113  66.6124913  47.4496493  20.9180113  66.5484913  47.8006493
  21.7840113  67.4594913  47.2546493  21.6060113  66.7274913  47.4726493
  12.6370113  55.9704913  48.6966493  12.4970113  56.7654913  48.3656493
  11.8510113  55.7274913  48.9856493  12.5000113  56.0524913  48.6906493
  17.5430113  72.8194913  42.7666493  17.5540113  72.8784913  43.6366493
  17.1180113  72.0724913  42.6166493  17.4820113  72.7174913  42.8726493
  15.7010113  58.7144913  35.9216493  15.8270113  58.3854913  35.1236493
  14.8890113  58.4654913  36.1206493  15.6000113  58.6294913  35.8336493
  21.9800113  65.1414913  38.5306493  21.6820113  64.8264913  39.2876493
  22.6750113  65.6144913  38.7656493  22.0390113  65.1644913  38.6776493
  22.2020113  69.2594913  46.5576493  22.8890113  69.1454913  47.0826493
  22.3360113  70.0504913  46.2136493  22.3230113  69.3594913  46.5846493
  14.3070113  72.3174913  48.2086493  13.6530113  71.7484913  48.3066493
  13.9320113  73.0904913  48.3596493  14.1550113  72.3474913  48.2456493
  25.9090113  72.0974913  41.0606493  25.4580113  72.7404913  41.4396493
  26.6170113  72.0184913  41.5656493  25.9470113  72.1804913  41.1916493
  22.6100113  67.1874913  43.9906493  21.9160113  67.5894913  44.3336493
  23.2870113  67.6204913  44.3296493  22.6070113  67.3104913  44.0916493
  27.9870113  69.7804913  50.5706493  28.7630113  69.3904913  50.6536493
  27.5180113  69.4444913  51.2256493  28.0320113  69.6734913  50.6796493
  15.6780113  60.7254913  46.3376493  16.0530113  61.3444913  45.8506493
  16.3520113  60.2514913  46.6226493  15.8330113  60.7474913  46.3076493
  13.4530113  59.1734913  45.6126493  13.5300113  59.0044913  44.7596493
  14.1990113  59.5794913  45.8096493  13.5740113  59.2084913  45.5156493
  16.0070113  56.5834913  48.0236493  15.9260113  55.7394913  48.2296493
  15.6930113  56.6274913  47.2106493  15.9490113  56.4654913  47.9336493
  12.8500113  64.3994913  45.8366493  13.1700113  64.6184913  45.0556493
  12.7500113  63.5344913  45.7816493  12.8820113  64.3044913  45.7136493
  14.3060113  60.3354913  32.4546493  13.6340113  60.3494913  33.0106493
  14.4010113  59.4874913  32.2706493  14.2210113  60.2124913  32.5096493
  18.2940113  69.0404913  33.5686493  18.7350113  69.1204913  34.3166493
  17.4890113  68.8244913  33.8266493  18.2400113  69.0204913  33.7176493
  17.6130113  63.6914913  47.2216493  17.2170113  64.4654913  47.2966493
  17.2070113  63.3184913  46.5456493  17.4950113  63.7504913  47.1326493
  15.6230113  68.1104913  34.1696493  15.3790113  67.8034913  34.9496493
  15.5900113  67.4074913  33.6536493  15.5820113  67.9614913  34.2086493
  18.4420113  66.3554913  32.9126493  17.6240113  66.0874913  33.0526493
  18.4140113  67.2074913  33.0976493  18.3170113  66.4424913  32.9606493
  24.8770113  68.2644913  44.8336493  25.0830113  68.5654913  45.6256493
  24.8160113  68.9864913  44.3486493  24.8980113  68.4154913  44.8786493
  24.4110113  72.4784913  49.0796493  23.6580113  72.4604913  48.6386493
  24.5790113  73.3304913  49.1636493  24.3250113  72.6014913  49.0266493
  19.6480113  61.7454913  48.2496493  19.3260113  61.1694913  47.6796493
  19.2890113  62.5004913  48.0036493  19.5480113  61.7714913  48.1296493
  18.0830113  72.1014913  48.4976493  18.1240113  72.2274913  49.3606493
  18.7340113  71.5414913  48.3416493  18.1850113  72.0374913  48.6026493
  27.7940113  70.1634913  43.0886493  28.3210113  70.0804913  42.3976493
  27.4030113  69.3854913  43.1426493  27.8140113  70.0364913  42.9946493
  15.2620113  56.7514913  45.3196493  14.9190113  55.9844913  45.0856493
  14.5670113  57.2754913  45.3836493  15.1090113  56.7154913  45.2946493
  15.6760113  70.4844913  49.8576493  16.2710113  70.9154913  50.3296493
  15.3120113  71.1084913  49.3686493  15.7100113  70.6404913  49.8546493
  13.9150113  60.0654913  39.2756493  13.5470113  60.3674913  40.0066493
  14.4490113  59.4364913  39.5596493  13.9390113  60.0174913  39.4256493
  13.6030113  68.4734913  46.7866493  13.0290113  68.8894913  47.2956493
  14.3360113  68.9384913  46.8816493  13.6270113  68.6034913  46.8756493
  15.3890113  71.7404913  35.5616493  15.2440113  71.8964913  34.7156493
  16.2550113  71.8194913  35.6396493  15.4960113  71.7754913  35.4486493
  19.5560113  64.1374913  35.2896493  19.6560113  64.2764913  34.4346493
  20.3740113  64.0774913  35.5856493  19.6910113  64.1484913  35.2066493
  28.7160113  72.2014913  32.7696493  29.3530113  72.0674913  33.3506493
  28.3750113  71.4074913  32.6526493  28.7600113  72.0644913  32.8376493
  16.0760113  70.5554913  42.0386493  15.9970113  69.7454913  41.7226493
  15.6320113  71.0424913  41.4666493  15.9990113  70.5074913  41.9076493
  13.6480113  72.7994913  45.6196493  14.1410113  72.7434913  46.3376493
  13.8360113  72.0664913  45.1846493  13.7490113  72.6824913  45.6616493
  23.0860113  55.3154913  18.7604083  22.8410113  55.8034913  18.0804083
  23.9490113  55.2424913  18.6604083  23.1770113  55.3764913  18.6454083
  12.7640113  66.3714913  18.8874083  12.3230113  66.4894913  19.6304083
  12.4810113  65.5964913  18.6024083  12.6570113  66.2744913  18.9554083
  29.0390113  69.6724913  16.4024083  29.7400113  69.1534913  16.3984083
  28.4520113  69.2274913  15.9334083  29.0560113  69.5294913  16.3324083
  12.5070113  60.1634913  15.3944083  11.7290113  60.3254913  15.0344083
  12.5460113  59.2924913  15.4164083  12.3980113  60.0584913  15.3444083
  15.6460113  65.4264913  14.0664083  15.2540113  65.0554913  13.3804083
  15.5660113  64.8284913  14.6954083  15.5760113  65.2834913  14.0574083
  25.5660113  63.2984913  20.1074083  25.6460113  63.3024913  19.2384083
  24.9820113  62.6664913  20.2564083  25.4910113  63.2054913  20.0014083
  15.2730113  67.0674913  17.9664083  15.8810113  66.8974913  18.5694083
  14.5220113  66.9274913  18.3874083  15.2520113  67.0214913  18.1174083
  19.5550113  56.4024913  17.9154083  19.4850113  57.0794913  17.3694083
  20.2960113  56.0144913  17.6664083  19.6540113  56.4454913  17.7974083
  14.1640113  70.1584913  14.0434083  14.6310113  70.2424913  13.3114083
  14.6190113  69.5804913  14.5124083  14.3000113  70.0854913  14.0044083
  12.7040113  69.1064913  25.1424083  12.8330113  68.8264913  25.9584083
  12.0940113  68.5654913  24.8334083  12.6330113  68.9854913  25.2174083
  14.1500113  63.6274913  19.3444083  13.6880113  63.2354913  18.7174083
  14.8500113  63.1144913  19.4364083  14.1850113  63.4944913  19.2654083
  18.6580113  59.2374913  24.6914083  19.3360113  59.2554913  24.1424083
  18.6130113  58.4014913  24.9364083  18.7510113  59.1164913  24.6464083
  19.2600113  69.8234913  27.4724083  19.3980113  70.5834913  27.0654083
  20.0510113  69.4584913  27.4994083  19.3970113  69.8824913  27.4164083
  16.1510113  61.7274913  19.3674083  16.9680113  61.5404913  19.6104083
  15.6740113  61.1134913  19.7634083  16.2010113  61.6094913  19.4624083
  20.3550113  67.7084913  21.9774083  20.7030113  66.9094913  22.0074083
  21.0200113  68.2124913  21.7224083  20.5050113  67.6644913  21.9444083
  20.4120113  67.1574913  18.1884083  20.7430113  66.5134913  18.6744083
  20.6520113  66.9464913  17.3774083  20.4960113  67.0314913  18.1404083
  16.7480113  56.8214913  18.6334083  16.4520113  57.3224913  17.9834083
  17.6150113  56.8994913  18.5764083  16.8320113  56.9074913  18.5294083
  19.7270113  55.9634913  20.8564083  19.8000113  56.8234913  20.9854083
  19.6890113  55.8884913  19.9884083  19.7320113  56.0794913  20.7474083
  24.4000113  58.8894913  13.1554083  23.9500113  59.5704913  13.4624083
  24.5140113  58.3854913  13.8584083  24.3510113  58.9154913  13.3044083
  12.6060113  61.3884913  22.3574083  12.3500113  62.2194913  22.2824083
  11.9420113  61.0054913  22.7744083  12.4700113  61.4544913  22.4084083
  12.5160113  71.0984913  20.2574083  11.9240113  71.6564913  19.9444083
  12.9420113  70.8294913  19.5454083  12.4920113  71.1404913  20.1064083
  18.3560113  68.9424913  17.7374083  17.7770113  68.6674913  18.3294083
  18.9800113  68.3334913  17.7624083  18.3630113  68.8124913  17.8284083
  24.4990113  71.2304913  15.2594083  25.2260113  71.7024913  15.3614083
  24.7280113  70.4364913  15.5394083  24.6410113  71.1834913  15.3164083
  22.6670113  71.6224913  17.2494083  22.8810113  72.1494913  17.9114083
  23.4340113  71.4484913  16.8704083  22.8120113  71.6744913  17.2914083
  15.6350113  56.2054913  22.8484083  15.1140113  55.5774913  22.5404083
  16.2260113  55.7684913  23.3194083  15.6460113  56.0474913  22.8724083
  18.9410113  58.3384913  32.1464083  19.0580113  57.8844913  31.4104083
  19.2290113  59.1364913  31.9434083  19.0010113  58.3894913  32.0074083
  14.0610113  69.7684913  18.1884083  14.7170113  69.1934913  18.2034083
  14.4500113  70.5174913  17.9674083  14.2160113  69.7934913  18.1584083
  29.7940113  58.8624913  19.4504083  29.4480113  59.5404913  19.8764083
  29.1580113  58.2644913  19.4664083  29.6490113  58.8744913  19.5154083
  25.1060113  71.6324913  25.5544083  25.8500113  72.0884913  25.5444083
  24.9850113  71.4184913  24.7174083  25.1980113  71.6684913  25.4294083
  14.6740113  57.9354913  31.1304083  13.8960113  57.5454913  31.0584083
  15.1650113  57.5234913  30.5394083  14.6310113  57.8164913  31.0324083
  14.8790113  68.2554913  21.6884083  15.3020113  67.8994913  21.0144083
  15.2030113  67.8334913  22.3804083  14.9890113  68.1404913  21.6914083
  18.1100113  71.1074913  20.9844083  18.9540113  71.2114913  20.7894083
  17.8130113  71.9254913  21.0524083  18.1910113  71.2434913  20.9654083
  22.6390113  60.8434913  14.1924083  22.9200113  61.6314913  14.4414083
  21.8630113  61.0084913  13.8294083  22.5660113  60.9844913  14.1754083
  26.6800113  72.8174913  15.6594083  27.3450113  72.6694913  15.1144083
  27.0400113  72.7344913  16.4494083  26.8320113  72.7834913  15.6954083
  17.1080113  72.3264913  26.7244083  17.4000113  72.2594913  27.5444083
  16.4820113  71.7214913  26.6794083  17.0590113  72.2274913  26.8394083
  12.0220113  58.4834913  28.7164083  12.0180113  59.0704913  29.3624083
  12.6160113  58.7954913  28.1594083  12.1090113  58.6164913  28.7294083
  21.4980113  69.0144913  14.0084083  21.3170113  69.5594913  14.6654083
  22.2640113  69.3044913  13.7074083  21.5840113  69.1384913  14.0614083
  25.0050113  56.9104913  15.0624083  25.5450113  56.2284913  15.1384083
  25.0670113  57.3084913  15.8364083  25.0940113  56.8684913  15.1884083
  12.9590113  58.0784913  17.6314083  12.8450113  57.2144913  17.6624083
  12.4840113  58.3724913  18.3014083  12.8720113  57.9944913  17.7344083
  15.1010113  70.4884913  25.8464083  14.4030113  69.9804913  25.9724083
  15.3610113  70.2834913  25.0384083  15.0360113  70.3834913  25.7454083
  22.2630113  59.2864913  16.3764083  21.7550113  58.6244913  16.1224083
  22.3150113  59.7904913  15.6664083  22.1960113  59.2634913  16.2344083
  22.8120113  71.9814913  26.7564083  23.5800113  71.9014913  26.3504083
  22.2290113  71.8604913  26.1184083  22.8390113  71.9514913  26.6024083
  22.2630113  56.2274913  16.2674083  21.8080113  55.8254913  15.6414083
  23.0360113  56.3824913  15.8924083  22.3100113  56.1914913  16.1194083
  29.0890113  72.5844913  19.6574083  28.6340113  73.3014913  19.8584083
  28.4750113  72.0134913  19.4154083  28.9310113  72.6064913  19.6514083
  26.0860113  68.4294913  19.2014083  26.7870113  67.9474913  19.3904083
  25.4260113  67.8604913  19.2464083  26.0920113  68.2744913  19.2354083
  16.4620113  69.3394913  28.4134083  17.3030113  69.4024913  28.1914083
  16.4250113  69.7364913  29.1894083  16.5810113  69.4074913  28.4954083
  15.4690113  54.4174913  19.1374083  16.0050113  55.1054913  19.1274083
  15.4720113  54.1434913  18.3094083  15.5480113  54.4784913  19.0134083
  18.4250113  64.8504913  23.1624083  18.5970113  64.6404913  23.9914083
  17.7700113  64.3164913  22.9464083  18.3540113  64.7404913  23.2534083
  19.1750113  64.7884913  25.7524083  19.2280113  65.6354913  25.9544083
  18.8900113  64.4184913  26.4894083  19.1410113  64.8584913  25.8904083
  25.3520113  65.4834913  24.8824083  24.8380113  65.0714913  25.4534083
  25.2260113  66.3274913  25.0634083  25.2580113  65.5474913  24.9934083
  11.9960113  69.1594913  31.9634083  12.7520113  69.5084913  32.2214083
  12.1730113  68.3064913  31.9064083  12.1340113  69.0844913  31.9934083
  15.9170113  58.2274913  20.7914083  16.1890113  57.7974913  20.0834083
  15.7410113  57.5914913  21.3624083  15.9310113  58.0704913  20.7714083
  28.6050113  65.9224913  15.0094083  28.7240113  65.6354913  15.8244083
  29.4120113  65.9434913  14.6794083  28.7410113  65.8834913  15.0814083
  15.7410113  65.6544913  20.3404083  16.5920113  65.5744913  20.1674083
  15.3840113  64.9724913  19.9284083  15.8140113  65.5414913  20.2534083
  14.5080113  72.3794913  21.5774083  13.8350113  71.8814913  21.3324083
  14.9110113  72.5644913  20.8264083  14.4680113  72.3334913  21.4304083
  14.0580113  59.3294913  23.8734083  14.9010113  59.5494913  23.8304083
  13.6690113  59.9024913  23.3424083  14.1250113  59.4464913  23.7884083
  30.8390113  70.4314913  29.2634083  30.1570113  70.7414913  28.8164083
  30.4700113  69.9734913  29.9084083  30.6830113  70.4094913  29.2924083
  26.5000113  62.4594913  14.5944083  26.2800113  63.1904913  14.1724083
  26.0520113  62.5104913  15.3414083  26.4010113  62.5744913  14.6424083
  18.1090113  65.6614913  18.5754083  18.8220113  66.1564913  18.6654083
  18.3310113  65.0944913  17.9494083  18.2470113  65.6504913  18.4964083
  30.6870113  57.3204913  14.0474083  30.0250113  56.7524913  14.0704083
  30.4940113  57.8324913  13.3674083  30.5610113  57.3124913  13.9504083
  12.2650113  67.3044913  21.8954083  11.5980113  67.7924913  22.1714083
  12.9450113  67.8494913  21.9244083  12.2670113  67.4564913  21.9404083
  19.9120113  61.0144913  31.9914083  19.4280113  61.5914913  32.4334083
  19.8840113  61.3094913  31.1704083  19.8360113  61.1434913  31.9354083
  31.0100113  61.6984913  26.6034083  31.2250113  60.8984913  26.3274083
  30.1600113  61.7584913  26.4144083  30.9160113  61.5894913  26.5344083
  12.3310113  63.9884913  16.9984083  12.1460113  63.1494913  17.1504083
  12.9900113  63.9524913  16.4284083  12.4010113  63.8594913  16.9364083
  22.6320113  69.3644913  20.9024083  22.1090113  69.9984913  20.6094083
  22.9420113  69.0004913  20.1734083  22.6000113  69.4044913  20.7514083
  12.5030113  68.1524913  16.5734083  13.0550113  68.7214913  16.9374083
  12.2710113  67.6374913  17.2384083  12.5500113  68.1604913  16.7254083
  16.7070113  67.1524913  23.6624083  17.1740113  67.4414913  24.3404083
  17.2790113  66.6744913  23.2084083  16.8610113  67.1244913  23.6954083
  12.3330113  66.6014913  14.2014083  13.0890113  66.1694913  14.2594083
  12.3480113  67.1334913  14.8924083  12.4470113  66.6164913  14.3124083
  13.2730113  64.8224913  22.2064083  13.7040113  64.6934913  21.4594083
  13.0680113  65.6704913  22.1804083  13.3060113  64.9284913  22.0924083
  19.6190113  58.3864913  15.8564083  19.6170113  58.2694913  14.9914083
  19.4380113  59.2344913  15.9484083  19.5920113  58.4944913  15.7424083
  28.6730113  70.8134913  27.3534083  28.0020113  71.3274913  27.5714083
  28.7360113  70.9134913  26.4894083  28.5830113  70.9044913  27.2584083
  17.3570113  68.3384913  20.4884083  17.4830113  69.1814913  20.6754083
  18.0250113  67.9394913  20.8844083  17.4750113  68.4044913  20.5744083
  15.4870113  61.8214913  30.3504083  14.9510113  61.3154913  30.8184083
  15.5070113  61.4314913  29.5704083  15.4100113  61.6884913  30.3044083
  15.9720113  61.2184913  15.4904083  15.8440113  60.7704913  16.2284083
  15.3900113  60.8764913  14.9384083  15.8670113  61.1014913  15.5184083
  16.1390113  63.0484913  22.0894083  15.3580113  62.9894913  21.7064083
  16.2110113  62.2964913  22.5264083  16.0340113  62.9294913  22.0974083
  16.5690113  62.7854913  25.5574083  16.5940113  62.1104913  25.0064083
  15.9230113  63.2814913  25.2454083  16.4780113  62.7584913  25.4304083
  20.6690113  71.5624913  24.9494083  20.3920113  70.9214913  24.4264083
  20.4610113  72.2884913  24.5114083  20.5980113  71.5754913  24.8074083
  24.6570113  58.4674913  17.4644083  25.1470113  59.1844913  17.3874083
  23.8670113  58.7284913  17.2014083  24.6130113  58.6114913  17.4144083
  14.3680113  64.1404913  31.1164083  14.3310113  64.6414913  30.4024083
  14.6990113  63.3884913  30.8214083  14.4110113  64.1024913  30.9674083
  23.4280113  63.1064913  15.4634083  23.4200113  63.8284913  14.9734083
  22.7890113  63.2414913  16.0404083  23.3330113  63.2334913  15.4764083
  28.4000113  66.9764913  19.4444083  28.7560113  66.6264913  20.1594083
  28.3920113  66.3154913  18.8744083  28.4520113  66.8264913  19.4654083
  24.4450113  70.0424913  23.2884083  23.8420113  69.7464913  22.7314083
  24.9900113  70.4944913  22.7794083  24.4360113  70.0654913  23.1304083
  24.4580113  66.8934913  22.6884083  23.6610113  67.1174913  22.9624083
  24.7160113  66.2994913  23.2734083  24.3780113  66.8384913  22.8154083
  18.3500113  71.7054913  17.1364083  18.2030113  70.9294913  17.5074083
  19.0390113  71.5584913  16.6214083  18.4300113  71.5684913  17.1154083
  18.0210113  55.4484913  15.1244083  18.1180113  55.3414913  15.9854083
  17.3130113  55.9544913  15.0594083  17.9310113  55.5074913  15.2424083
  20.6420113  71.2214913  15.5384083  21.2640113  71.3844913  16.1284083
  20.6780113  71.9124913  15.0064083  20.7390113  71.3474913  15.5474083
  27.7180113  64.8914913  27.5344083  27.7730113  65.0164913  26.6724083
  28.4710113  65.2114913  27.8364083  27.8370113  64.9564913  27.4514083
  23.9090113  70.2404913  31.8114083  24.0730113  70.5234913  32.6204083
  24.1720113  70.9014913  31.3064083  23.9720113  70.3804913  31.8564083
  15.1430113  63.7554913  16.3674083  15.4670113  62.9764913  16.1454083
  15.7890113  64.1234913  16.8224083  15.2860113  63.6944913  16.4014083
  23.4490113  64.6974913  27.1344083  23.2940113  65.3074913  27.7384083
  23.9830113  64.1394913  27.5404083  23.5050113  64.7054913  27.2834083
  12.1400113  55.4164913  17.3354083  12.2690113  54.7084913  16.8434083
  11.7730113  55.0984913  18.0604083  12.1050113  55.2644913  17.3704083
  21.8330113  63.0974913  17.7924083  21.8920113  63.7474913  18.3714083
  21.6440113  62.4014913  18.2834083  21.8140113  63.0904913  17.9504083
  27.0590113  67.4264913  23.6614083  26.5800113  67.7244913  22.9954083
  26.7030113  66.6504913  23.8394083  26.9360113  67.3554913  23.5894083
  16.3290113  57.6144913  14.3044083  15.8180113  57.6674913  13.5984083
  17.1130113  57.8544913  14.0084083  16.3690113  57.6574913  14.1564083
  21.0560113  65.1444913  22.2234083  20.2090113  64.9504913  22.3044083
  21.3800113  64.9794913  23.0164083  20.9780113  65.0914913  22.3524083
  17.8080113  71.8744913  13.1094083  18.2470113  71.1774913  13.3974083
  18.0150113  72.4984913  13.6824083  17.9040113  71.8634913  13.2364083
  14.9040113  64.8374913  24.5394083  15.6260113  65.3254913  24.5024083
  14.6340113  64.8074913  23.7104083  14.9710113  64.9054913  24.4114083
  18.1340113  60.0084913  21.2744083  18.9800113  59.8184913  21.3724083
  17.7640113  59.2314913  21.1364083  18.2040113  59.8654913  21.2684083
  30.7510113  71.5924913  15.6014083  31.4450113  71.1254913  15.3534083
  30.2120113  70.9944913  15.9384083  30.7740113  71.4344913  15.6144083
  12.9550113  61.3464913  17.9294083  13.4440113  61.0544913  18.5904083
  13.0840113  60.7534913  17.3024083  13.0460113  61.2154913  17.9344083
  27.9900113  64.3684913  24.7804083  27.9830113  63.5924913  25.1784083
  27.1490113  64.6024913  24.7734083  27.8650113  64.2884913  24.8384083
  17.4800113  62.7804913  13.4154083  16.8700113  62.3754913  13.8894083
  17.0940113  62.8984913  12.6424083  17.3330113  62.7374913  13.3714083
  14.2990113  65.8894913  28.8174083  13.8780113  65.3714913  28.2564083
  13.9470113  66.6754913  28.6744083  14.1850113  65.9294913  28.7134083
  29.2460113  64.4394913  22.2174083  28.9600113  64.8404913  22.9374083
  30.1060113  64.3774913  22.3444083  29.3310113  64.4894913  22.3424083
  18.9350113  61.2414913  16.1254083  19.2070113  62.0674913  16.1924083
  18.0720113  61.3164913  16.0294083  18.8480113  61.3744913  16.1204083
  12.4150113  57.2114913  22.6614083  12.4590113  57.5554913  21.8604083
  13.1700113  57.4484913  23.0284083  12.5330113  57.2974913  22.5974083
  30.3770113  70.0724913  22.7464083  30.6670113  70.3294913  21.9654083
  31.0720113  70.1684913  23.2654083  30.5230113  70.1244913  22.7074083
  26.9820113  68.6754913  14.7284083  27.3160113  67.8694913  14.7634083
  26.2270113  68.6034913  15.1584083  26.9200113  68.5454913  14.7974083
  29.9040113  66.4694913  28.1394083  30.5320113  65.9204913  27.8834083
  29.8430113  67.0344913  27.4774083  29.9880113  66.4724913  28.0034083
  24.3560113  66.5504913  14.1314083  25.0400113  66.0364913  13.9624083
  23.9390113  66.5964913  13.3664083  24.3950113  66.4814913  13.9934083
  19.0380113  67.7004913  25.4354083  18.7400113  68.2924913  26.0024083
  19.0930113  68.1424913  24.6864083  19.0020113  67.8534913  25.4084083
  17.0170113  66.6504913  28.8334083  16.2110113  66.3604913  29.0004083
  16.9280113  67.5184913  28.8394083  16.8850113  66.7354913  28.8584083
  21.5540113  64.1234913  24.9264083  22.0300113  64.4974913  25.5544083
  20.7310113  64.2574913  25.1854083  21.5030113  64.1984913  25.0574083
  18.2640113  59.7264913  27.6674083  18.4250113  58.9824913  28.0944083
  18.2190113  59.4774913  26.8324083  18.2810113  59.5794913  27.6074083
  20.8180113  71.5164913  20.1544083  21.3640113  72.1954913  20.2084083
  20.4680113  71.5984913  19.3594083  20.8470113  71.6294913  20.0444083
  19.0010113  69.7444913  23.5434083  18.3770113  70.3264913  23.3614083
  19.2490113  69.4584913  22.7574083  18.9450113  69.7884913  23.4004083
  27.2190113  68.9284913  29.0364083  27.5650113  69.1984913  29.7904083
  27.5130113  69.5104913  28.4564083  27.3140113  69.0544913  29.0624083
  29.0820113  61.0744913  14.3754083  29.4600113  61.7514913  13.9754083
  28.2400113  61.2984913  14.4064083  29.0130113  61.2074913  14.3204083
  20.5950113  64.5204913  13.4584083  19.7900113  64.3434913  13.1734083
  20.5620113  65.3714913  13.6504083  20.4710113  64.6194913  13.4454083
  16.5250113  60.5874913  23.6084083  16.9650113  60.4844913  22.8624083
  17.0700113  60.2744913  24.2134083  16.6700113  60.5264913  23.5874083
  21.6540113  71.3934913  29.4234083  22.1320113  70.7934913  29.0074083
  21.3030113  70.9504913  30.0884083  21.6730113  71.2394913  29.4604083
  26.7770113  60.6734913  17.7504083  26.9840113  60.4724913  18.5744083
  27.5330113  60.9414913  17.4084083  26.9190113  60.6834913  17.8214083
  20.0720113  55.5724913  23.6554083  19.2460113  55.4234913  23.8924083
  20.0320113  55.6074913  22.7844083  19.9440113  55.5554913  23.5614083
  27.7990113  56.7564913  19.2244083  27.0850113  56.2854913  19.3954083
  27.6370113  57.0974913  18.4384083  27.6700113  56.7374913  19.1334083
  28.2420113  64.7004913  17.6044083  28.7180113  63.9714913  17.5564083
  27.4210113  64.4144913  17.5284083  28.1910113  64.5504913  17.5854083
  12.6370113  55.9704913  29.6904083  12.4970113  56.7654913  29.3594083
  11.8510113  55.7274913  29.9794083  12.5000113  56.0524913  29.6844083
  17.5430113  72.8194913  23.7604083  17.5540113  72.8784913  24.6304083
  17.1180113  72.0724913  23.6104083  17.4820113  72.7174913  23.8664083
  15.7010113  58.7144913  16.9154083  15.8270113  58.3854913  16.1174083
  14.8890113  58.4654913  17.1144083  15.6000113  58.6294913  16.8274083
  24.4580113  65.8674913  19.9594083  24.5340113  66.2084913  20.7584083
  24.6270113  65.0204913  20.0804083  24.4940113  65.7924913  20.0954083
  21.9800113  65.1414913  19.5244083  21.6820113  64.8264913  20.2814083
  22.6750113  65.6144913  19.7594083  22.0390113  65.1644913  19.6714083
  22.2020113  69.2594913  27.5514083  22.8890113  69.1454913  28.0764083
  22.3360113  70.0504913  27.2074083  22.3230113  69.3594913  27.5784083
  30.3780113  61.8684913  29.3624083  29.5230113  61.7464913  29.4884083
  30.5310113  61.4734913  28.5994083  30.2740113  61.7914913  29.2684083
  14.3070113  72.3174913  29.2024083  13.6530113  71.7484913  29.3004083
  13.9320113  73.0904913  29.3534083  14.1550113  72.3474913  29.2394083
  25.9090113  72.0974913  22.0544083  25.4580113  72.7404913  22.4334083
  26.6170113  72.0184913  22.5594083  25.9470113  72.1804913  22.1854083
  22.6100113  67.1874913  24.9844083  21.9160113  67.5894913  25.3274083
  23.2870113  67.6204913  25.3234083  22.6070113  67.3104913  25.0854083
  27.9870113  69.7804913  31.5644083  28.7630113  69.3904913  31.6474083
  27.5180113  69.4444913  32.2194083  28.0320113  69.6734913  31.6734083
  15.6780113  60.7254913  27.3314083  16.0530113  61.3444913  26.8444083
  16.3520113  60.2514913  27.6164083  15.8330113  60.7474913  27.3014083
  13.4530113  59.1734913  26.6064083  13.5300113  59.0044913  25.7534083
  14.1990113  59.5794913  26.8034083  13.5740113  59.2084913  26.5094083
  29.0120113  61.8134913  17.0464083  29.1150113  61.7554913  16.1824083
  29.7530113  61.4814913  17.3644083  29.1370113  61.7564913  16.9654083
  16.0070113  56.5834913  29.0174083  15.9260113  55.7394913  29.2234083
  15.6930113  56.6274913  28.2044083  15.9490113  56.4654913  28.9274083
  22.9320113  68.7784913  18.1534083  22.7270113  69.6114913  17.9944083
  22.1570113  68.3964913  18.2754083  22.7870113  68.8454913  18.1484083
  12.8500113  64.3994913  26.8304083  13.1700113  64.6184913  26.0494083
  12.7500113  63.5344913  26.7754083  12.8820113  64.3044913  26.7074083
  14.3060113  60.3354913  13.4484083  13.6340113  60.3494913  14.0044083
  14.4010113  59.4874913  13.2644083  14.2210113  60.2124913  13.5034083
  18.2940113  69.0404913  14.5624083  18.7350113  69.1204913  15.3104083
  17.4890113  68.8244913  14.8204083  18.2400113  69.0204913  14.7114083
  17.6130113  63.6914913  28.2154083  17.2170113  64.4654913  28.2904083
  17.2070113  63.3184913  27.5394083  17.4950113  63.7504913  28.1264083
  26.8890113  62.7454913  22.3294083  27.5550113  63.2864913  22.4894083
  26.5440113  63.0564913  21.5904083  26.9360113  62.8714913  22.2444083
  27.2020113  70.8114913  18.1364083  27.0280113  70.1574913  18.6864083
  27.9150113  70.5404913  17.7134083  27.2820113  70.6744913  18.1554083
  15.6230113  68.1104913  15.1634083  15.3790113  67.8034913  15.9434083
  15.5900113  67.4074913  14.6474083  15.5820113  67.9614913  15.2024083
  18.4420113  66.3554913  13.9064083  17.6240113  66.0874913  14.0464083
  18.4140113  67.2074913  14.0914083  18.3170113  66.4424913  13.9544083
  18.0420113  56.6684913  25.6654083  17.1780113  56.7524913  25.7454083
  18.2620113  56.1544913  26.3344083  17.9470113  56.6054913  25.7764083
  24.8770113  68.2644913  25.8274083  25.0830113  68.5654913  26.6194083
  24.8160113  68.9864913  25.3424083  24.8980113  68.4154913  25.8724083
  24.4110113  72.4784913  30.0734083  23.6580113  72.4604913  29.6324083
  24.5790113  73.3304913  30.1574083  24.3250113  72.6014913  30.0204083
  19.6480113  61.7454913  29.2434083  19.3260113  61.1694913  28.6734083
  19.2890113  62.5004913  28.9974083  19.5480113  61.7714913  29.1234083
  20.4440113  54.9974913  13.8704083  20.5220113  55.2444913  13.0374083
  19.7010113  55.3744913  14.1284083  20.3460113  55.0894913  13.7854083
  29.6890113  66.9034913  25.2854083  29.6570113  66.0414913  25.1504083
  28.9960113  67.2054913  24.8514083  29.5820113  66.8204913  25.2014083
  18.0830113  72.1014913  29.4914083  18.1240113  72.2274913  30.3544083
  18.7340113  71.5414913  29.3354083  18.1850113  72.0374913  29.5964083
  27.7940113  70.1634913  24.0824083  28.3210113  70.0804913  23.3914083
  27.4030113  69.3854913  24.1364083  27.8140113  70.0364913  23.9884083
  15.2620113  56.7514913  26.3134083  14.9190113  55.9844913  26.0794083
  14.5670113  57.2754913  26.3774083  15.1090113  56.7154913  26.2884083
  15.6760113  70.4844913  30.8514083  16.2710113  70.9154913  31.3234083
  15.3120113  71.1084913  30.3624083  15.7100113  70.6404913  30.8484083
  13.9150113  60.0654913  20.2694083  13.5470113  60.3674913  21.0004083
  14.4490113  59.4364913  20.5534083  13.9390113  60.0174913  20.4194083
  13.6030113  68.4734913  27.7804083  13.0290113  68.8894913  28.2894083
  14.3360113  68.9384913  27.8754083  13.6270113  68.6034913  27.8694083
  25.6370113  63.2464913  17.3454083  25.7050113  62.3964913  17.5264083
  24.8140113  63.3324913  17.0674083  25.5250113  63.1334913  17.3314083
  15.3890113  71.7404913  16.5554083  15.2440113  71.8964913  15.7094083
  16.2550113  71.8194913  16.6334083  15.4960113  71.7754913  16.4424083
  19.5560113  64.1374913  16.2834083  19.6560113  64.2764913  15.4284083
  20.3740113  64.0774913  16.5794083  19.6910113  64.1484913  16.2004083
  28.7160113  72.2014913  13.7634083  29.3530113  72.0674913  14.3444083
  28.3750113  71.4074913  13.6464083  28.7600113  72.0644913  13.8314083
  24.7910113  68.4664913  16.0854083  24.5400113  68.3384913  16.9114083
  24.4740113  67.7714913  15.6644083  24.7070113  68.3454913  16.1454083
  29.4350113  60.1244913  24.2054083  28.6020113  60.3744913  24.1334083
  29.3790113  59.2844913  24.4344083  29.3040113  60.0374913  24.2284083
  18.6950113  57.1124913  29.3994083  18.9290113  56.5364913  28.7864083
  17.8530113  56.9314913  29.5404083  18.6050113  57.0004913  29.3294083
  16.0760113  70.5554913  23.0324083  15.9970113  69.7454913  22.7164083
  15.6320113  71.0424913  22.4604083  15.9990113  70.5074913  22.9014083
  21.6770113  66.6744913  15.5154083  22.3940113  66.3274913  15.1594083
  21.6430113  67.4744913  15.1674083  21.7780113  66.7414913  15.4114083
  13.6480113  72.7994913  26.6134083  14.1410113  72.7434913  27.3314083
  13.8360113  72.0664913  26.1784083  13.7490113  72.6824913  26.6554083
  22.8950113  62.2314913   4.4251673  22.3710113  62.8274913   4.7881673
  23.2920113  61.8634913   5.1091673  22.8760113  62.2654913   4.5801673
  12.7040113  69.1064913   6.1361673  12.8330113  68.8264913   6.9521673
  12.0940113  68.5654913   5.8271673  12.6330113  68.9854913   6.2111673
  19.2780113  66.6314913  11.2031673  19.0420113  66.6284913  12.0431673
  18.5300113  66.4834913  10.7791673  19.1320113  66.6084913  11.2641673
  18.6580113  59.2374913   5.6851673  19.3360113  59.2554913   5.1361673
  18.6130113  58.4014913   5.9301673  18.7510113  59.1164913   5.6401673
  19.2600113  69.8234913   8.4661673  19.3980113  70.5834913   8.0591673
  20.0510113  69.4584913   8.4931673  19.3970113  69.8824913   8.4101673
  20.3550113  67.7084913   2.9711673  20.7030113  66.9094913   3.0011673
  21.0200113  68.2124913   2.7161673  20.5050113  67.6644913   2.9381673
  22.3800113  61.2884913  10.5211673  21.5320113  61.1894913  10.3431673
  22.4090113  62.0334913  10.9751673  22.2590113  61.3844913  10.5621673
  26.9380113  54.2484913   9.6351673  26.7800113  55.0174913   9.2531673
  26.1660113  54.0284913   9.9791673  26.8000113  54.3294913   9.6301673
  12.6060113  61.3884913   3.3511673  12.3500113  62.2194913   3.2761673
  11.9420113  61.0054913   3.7681673  12.4700113  61.4544913   3.4021673
  15.6350113  56.2054913   3.8421673  15.1140113  55.5774913   3.5341673
  16.2260113  55.7684913   4.3131673  15.6460113  56.0474913   3.8661673
  18.9410113  58.3384913  13.1401673  19.0580113  57.8844913  12.4041673
  19.2290113  59.1364913  12.9371673  19.0010113  58.3894913  13.0011673
  25.1060113  71.6324913   6.5481673  25.8500113  72.0884913   6.5381673
  24.9850113  71.4184913   5.7111673  25.1980113  71.6684913   6.4231673
  14.6740113  57.9354913  12.1241673  13.8960113  57.5454913  12.0521673
  15.1650113  57.5234913  11.5331673  14.6310113  57.8164913  12.0261673
  14.8790113  68.2554913   2.6821673  15.3020113  67.8994913   2.0081673
  15.2030113  67.8334913   3.3741673  14.9890113  68.1404913   2.6851673
  18.1100113  71.1074913   1.9781673  18.9540113  71.2114913   1.7831673
  17.8130113  71.9254913   2.0461673  18.1910113  71.2434913   1.9591673
  21.3230113  55.5784913  11.2921673  21.5010113  54.7694913  11.0171673
  21.1800113  56.0194913  10.5531673  21.3280113  55.5244913  11.1421673
  17.1080113  72.3264913   7.7181673  17.4000113  72.2594913   8.5381673
  16.4820113  71.7214913   7.6731673  17.0590113  72.2274913   7.8331673
  29.4690113  57.1854913   5.8131673  30.2260113  57.2574913   5.3851673
  29.5320113  56.4124913   6.2121673  29.5900113  57.0824913   5.8081673
  12.0220113  58.4834913   9.7101673  12.0180113  59.0704913  10.3561673
  12.6160113  58.7954913   9.1531673  12.1090113  58.6164913   9.7231673
  24.3600113  68.8174913  10.2521673  24.3260113  69.1994913  11.0361673
  25.2140113  68.7754913  10.0811673  24.4810113  68.8674913  10.3431673
  15.1010113  70.4884913   6.8401673  14.4030113  69.9804913   6.9661673
  15.3610113  70.2834913   6.0321673  15.0360113  70.3834913   6.7391673
  22.8120113  71.9814913   7.7501673  23.5800113  71.9014913   7.3441673
  22.2290113  71.8604913   7.1121673  22.8390113  71.9514913   7.5961673
  16.4620113  69.3394913   9.4071673  17.3030113  69.4024913   9.1851673
  16.4250113  69.7364913  10.1831673  16.5810113  69.4074913   9.4891673
  18.4250113  64.8504913   4.1561673  18.5970113  64.6404913   4.9851673
  17.7700113  64.3164913   3.9401673  18.3540113  64.7404913   4.2471673
  24.6530113  58.7644913   7.6711673  24.5580113  59.0834913   8.4771673
  24.0600113  58.1254913   7.6331673  24.5510113  58.7164913   7.7851673
  19.1750113  64.7884913   6.7461673  19.2280113  65.6354913   6.9481673
  18.8900113  64.4184913   7.4831673  19.1410113  64.8584913   6.8841673
  25.3520113  65.4834913   5.8761673  24.8380113  65.0714913   6.4471673
  25.2260113  66.3274913   6.0571673  25.2580113  65.5474913   5.9871673
  11.9960113  69.1594913  12.9571673  12.7520113  69.5084913  13.2151673
  12.1730113  68.3064913  12.9001673  12.1340113  69.0844913  12.9871673
  28.3730113  58.9444913   8.8151673  29.1450113  58.7194913   9.1521673
  27.8980113  59.1614913   9.5151673  28.4170113  58.9434913   8.9681673
  14.5080113  72.3794913   2.5711673  13.8350113  71.8814913   2.3261673
  14.9110113  72.5644913   1.8201673  14.4680113  72.3334913   2.4241673
  14.0580113  59.3294913   4.8671673  14.9010113  59.5494913   4.8241673
  13.6690113  59.9024913   4.3361673  14.1250113  59.4464913   4.7821673
  30.8390113  70.4314913  10.2571673  30.1570113  70.7414913   9.8101673
  30.4700113  69.9734913  10.9021673  30.6830113  70.4094913  10.2861673
  12.2650113  67.3044913   2.8891673  11.5980113  67.7924913   3.1651673
  12.9450113  67.8494913   2.9181673  12.2670113  67.4564913   2.9341673
  19.9120113  61.0144913  12.9851673  19.4280113  61.5914913  13.4271673
  19.8840113  61.3094913  12.1641673  19.8360113  61.1434913  12.9291673
  31.0100113  61.6984913   7.5971673  31.2250113  60.8984913   7.3211673
  30.1600113  61.7584913   7.4081673  30.9160113  61.5894913   7.5281673
  16.7070113  67.1524913   4.6561673  17.1740113  67.4414913   5.3341673
  17.2790113  66.6744913   4.2021673  16.8610113  67.1244913   4.6891673
  25.1430113  59.1664913   2.3931673  25.4870113  59.3184913   3.1801673
  24.6900113  58.4284913   2.5061673  25.1270113  59.0794913   2.5261673
  13.2730113  64.8224913   3.2001673  13.7040113  64.6934913   2.4531673
  13.0680113  65.6704913   3.1741673  13.3060113  64.9284913   3.0861673
  28.6730113  70.8134913   8.3471673  28.0020113  71.3274913   8.5651673
  28.7360113  70.9134913   7.4831673  28.5830113  70.9044913   8.2521673
  15.4870113  61.8214913  11.3441673  14.9510113  61.3154913  11.8121673
  15.5070113  61.4314913  10.5641673  15.4100113  61.6884913  11.2981673
  16.1390113  63.0484913   3.0831673  15.3580113  62.9894913   2.7001673
  16.2110113  62.2964913   3.5201673  16.0340113  62.9294913   3.0911673
  16.5690113  62.7854913   6.5511673  16.5940113  62.1104913   6.0001673
  15.9230113  63.2814913   6.2391673  16.4780113  62.7584913   6.4241673
  26.4640113  60.4984913   4.9471673  25.8020113  60.8264913   5.4101673
  26.6510113  61.1324913   4.3781673  26.3940113  60.6404913   4.9311673
  20.6690113  71.5624913   5.9431673  20.3920113  70.9214913   5.4201673
  20.4610113  72.2884913   5.5051673  20.5980113  71.5754913   5.8011673
  23.1090113  56.4044913   8.3761673  23.2580113  55.5794913   8.1331673
  23.4880113  56.4594913   9.1601673  23.1870113  56.2904913   8.4561673
  14.3680113  64.1404913  12.1101673  14.3310113  64.6414913  11.3961673
  14.6990113  63.3884913  11.8151673  14.4110113  64.1024913  11.9611673
  25.9710113  66.3454913  10.3681673  26.4550113  67.0634913  10.4661673
  26.3650113  65.9184913   9.7171673  26.1010113  66.3884913  10.2861673
  20.2670113  69.1904913  11.5451673  20.6210113  69.0124913  12.3221673
  19.8310113  68.4614913  11.3461673  20.2550113  69.0564913  11.6311673
  21.2390113  59.9374913   4.1831673  21.7190113  60.6364913   4.3911673
  21.6120113  59.2904913   4.6341673  21.3650113  59.9454913   4.2801673
  24.4450113  70.0424913   4.2821673  23.8420113  69.7464913   3.7251673
  24.9900113  70.4944913   3.7731673  24.4360113  70.0654913   4.1241673
  24.4580113  66.8934913   3.6821673  23.6610113  67.1174913   3.9561673
  24.7160113  66.2994913   4.2671673  24.3780113  66.8384913   3.8091673
  27.7180113  64.8914913   8.5281673  27.7730113  65.0164913   7.6661673
  28.4710113  65.2114913   8.8301673  27.8370113  64.9564913   8.4451673
  23.9090113  70.2404913  12.8051673  24.0730113  70.5234913  13.6141673
  24.1720113  70.9014913  12.3001673  23.9720113  70.3804913  12.8501673
  28.7500113  55.1894913  11.5151673  28.1130113  54.7894913  11.0731673
  28.7760113  54.7584913  12.2731673  28.6600113  55.0674913  11.5611673
  23.4490113  64.6974913   8.1281673  23.2940113  65.3074913   8.7321673
  23.9830113  64.1394913   8.5341673  23.5050113  64.7054913   8.2771673
  27.0590113  67.4264913   4.6551673  26.5800113  67.7244913   3.9891673
  26.7030113  66.6504913   4.8331673  26.9360113  67.3554913   4.5831673
  21.0560113  65.1444913   3.2171673  20.2090113  64.9504913   3.2981673
  21.3800113  64.9794913   4.0101673  20.9780113  65.0914913   3.3461673
  14.9040113  64.8374913   5.5331673  15.6260113  65.3254913   5.4961673
  14.6340113  64.8074913   4.7041673  14.9710113  64.9054913   5.4051673
  18.1340113  60.0084913   2.2681673  18.9800113  59.8184913   2.3661673
  17.7640113  59.2314913   2.1301673  18.2040113  59.8654913   2.2621673
  27.9900113  64.3684913   5.7741673  27.9830113  63.5924913   6.1721673
  27.1490113  64.6024913   5.7671673  27.8650113  64.2884913   5.8321673
  14.2990113  65.8894913   9.8111673  13.8780113  65.3714913   9.2501673
  13.9470113  66.6754913   9.6681673  14.1850113  65.9294913   9.7071673
  29.2460113  64.4394913   3.2111673  28.9600113  64.8404913   3.9311673
  30.1060113  64.3774913   3.3381673  29.3310113  64.4894913   3.3361673
  26.9080113  58.3634913  11.7511673  26.3830113  58.8224913  12.2751673
  26.5470113  57.5684913  11.7451673  26.7770113  58.3134913  11.8271673
  12.4150113  57.2114913   3.6551673  12.4590113  57.5554913   2.8541673
  13.1700113  57.4484913   4.0221673  12.5330113  57.2974913   3.5911673
  30.3770113  70.0724913   3.7401673  30.6670113  70.3294913   2.9591673
  31.0720113  70.1684913   4.2591673  30.5230113  70.1244913   3.7011673
  25.4000113  61.9324913  11.8271673  25.4730113  62.0364913  12.6901673
  24.7660113  62.4904913  11.6061673  25.3170113  62.0304913  11.9221673
  27.6680113  62.2514913  10.1921673  27.9870113  63.0374913  10.3951673
  27.2980113  61.9814913  10.9351673  27.6610113  62.3274913  10.3321673
  30.3660113  62.7934913  12.9271673  30.3140113  62.4524913  12.1261673
  31.1030113  63.2604913  12.9051673  30.4670113  62.8124913  12.8051673
  29.9040113  66.4694913   9.1331673  30.5320113  65.9204913   8.8771673
  29.8430113  67.0344913   8.4711673  29.9880113  66.4724913   8.9971673
  19.0380113  67.7004913   6.4291673  18.7400113  68.2924913   6.9961673
  19.0930113  68.1424913   5.6801673  19.0020113  67.8534913   6.4021673
  17.0170113  66.6504913   9.8271673  16.2110113  66.3604913   9.9941673
  16.9280113  67.5184913   9.8331673  16.8850113  66.7354913   9.8521673
  26.3760113  56.8394913   8.8421673  27.1200113  57.2914913   8.7791673
  25.8100113  57.3094913   8.3731673  26.4030113  56.9764913   8.7641673
  21.5540113  64.1234913   5.9201673  22.0300113  64.4974913   6.5481673
  20.7310113  64.2574913   6.1791673  21.5030113  64.1984913   6.0511673
  18.2640113  59.7264913   8.6611673  18.4250113  58.9824913   9.0881673
  18.2190113  59.4774913   7.8261673  18.2810113  59.5794913   8.6011673
  27.6610113  54.8194913   6.5121673  27.3810113  55.6444913   6.4681673
  28.3770113  54.8724913   7.0081673  27.7260113  54.9494913   6.5791673
  20.0160113  55.5344913   8.5411673  20.7210113  55.8544913   8.1391673
  20.2570113  54.7274913   8.7681673  20.1550113  55.4624913   8.5151673
  19.0010113  69.7444913   4.5371673  18.3770113  70.3264913   4.3551673
  19.2490113  69.4584913   3.7511673  18.9450113  69.7884913   4.3941673
  23.3100113  66.3784913  11.5261673  24.0670113  66.6644913  11.2001673
  22.7630113  66.4304913  10.8481673  23.3410113  66.4284913  11.3771673
  27.2190113  68.9284913  10.0301673  27.5650113  69.1984913  10.7841673
  27.5130113  69.5104913   9.4501673  27.3140113  69.0544913  10.0561673
  16.5250113  60.5874913   4.6021673  16.9650113  60.4844913   3.8561673
  17.0700113  60.2744913   5.2071673  16.6700113  60.5264913   4.5811673
  24.5410113  59.6894913  10.1941673  23.8930113  60.1594913  10.5421673
  25.1060113  59.6004913  10.8531673  24.5290113  59.7454913  10.3431673
  24.2290113  61.2264913   6.4921673  24.5310113  61.6464913   7.1951673
  24.2650113  60.3864913   6.7241673  24.2790113  61.1644913   6.6301673
  21.6540113  71.3934913  10.4171673  22.1320113  70.7934913  10.0011673
  21.3030113  70.9504913  11.0821673  21.6730113  71.2394913  10.4541673
  20.0720113  55.5724913   4.6491673  19.2460113  55.4234913   4.8861673
  20.0320113  55.6074913   3.7781673  19.9440113  55.5554913   4.5551673
  21.7130113  66.6124913   9.4371673  20.9180113  66.5484913   9.7881673
  21.7840113  67.4594913   9.2421673  21.6060113  66.7274913   9.4601673
  12.6370113  55.9704913  10.6841673  12.4970113  56.7654913  10.3531673
  11.8510113  55.7274913  10.9731673  12.5000113  56.0524913  10.6781673
  17.5430113  72.8194913   4.7541673  17.5540113  72.8784913   5.6241673
  17.1180113  72.0724913   4.6041673  17.4820113  72.7174913   4.8601673
  22.2020113  69.2594913   8.5451673  22.8890113  69.1454913   9.0701673
  22.3360113  70.0504913   8.2011673  22.3230113  69.3594913   8.5721673
  30.3780113  61.8684913  10.3561673  29.5230113  61.7464913  10.4821673
  30.5310113  61.4734913   9.5931673  30.2740113  61.7914913  10.2621673
  24.8910113  62.5334913   8.9321673  24.6360113  61.8144913   9.3541673
  25.7120113  62.6494913   9.2021673  24.9750113  62.4444913   9.0341673
  14.3070113  72.3174913  10.1961673  13.6530113  71.7484913  10.2941673
  13.9320113  73.0904913  10.3471673  14.1550113  72.3474913  10.2331673
  22.8250113  63.7234913  12.1191673  23.1480113  64.4094913  11.6871673
  22.1210113  64.0464913  12.5211673  22.7680113  63.8724913  12.1141673
  25.9090113  72.0974913   3.0481673  25.4580113  72.7404913   3.4271673
  26.6170113  72.0184913   3.5531673  25.9470113  72.1804913   3.1791673
  22.6100113  67.1874913   5.9781673  21.9160113  67.5894913   6.3211673
  23.2870113  67.6204913   6.3171673  22.6070113  67.3104913   6.0791673
  27.9870113  69.7804913  12.5581673  28.7630113  69.3904913  12.6411673
  27.5180113  69.4444913  13.2131673  28.0320113  69.6734913  12.6671673
  15.6780113  60.7254913   8.3251673  16.0530113  61.3444913   7.8381673
  16.3520113  60.2514913   8.6101673  15.8330113  60.7474913   8.2951673
  13.4530113  59.1734913   7.6001673  13.5300113  59.0044913   6.7471673
  14.1990113  59.5794913   7.7971673  13.5740113  59.2084913   7.5031673
  16.0070113  56.5834913  10.0111673  15.9260113  55.7394913  10.2171673
  15.6930113  56.6274913   9.1981673  15.9490113  56.4654913   9.9211673
  28.1140113  61.9594913   7.3961673  28.1120113  61.0964913   7.5201673
  28.1810113  62.2834913   8.2031673  28.1240113  61.8794913   7.5331673
  12.8500113  64.3994913   7.8241673  13.1700113  64.6184913   7.0431673
  12.7500113  63.5344913   7.7691673  12.8820113  64.3044913   7.7011673
  23.9930113  56.7594913  11.1781673  24.0850113  57.4714913  11.6721673
  23.3560113  56.3144913  11.5751673  23.9120113  56.7984913  11.3101673
  26.5850113  57.4654913   4.8321673  27.4400113  57.5644913   4.9771673
  26.2160113  58.0184913   5.3971673  26.6570113  57.5624913   4.9371673
  17.6130113  63.6914913   9.2091673  17.2170113  64.4654913   9.2841673
  17.2070113  63.3184913   8.5331673  17.4950113  63.7504913   9.1201673
  26.8890113  62.7454913   3.3231673  27.5550113  63.2864913   3.4831673
  26.5440113  63.0564913   2.5841673  26.9360113  62.8714913   3.2381673
  18.0420113  56.6684913   6.6591673  17.1780113  56.7524913   6.7391673
  18.2620113  56.1544913   7.3281673  17.9470113  56.6054913   6.7701673
  30.0600113  55.3034913   7.9881673  30.0080113  55.2594913   8.8581673
  30.7470113  54.8004913   7.7981673  30.1540113  55.2234913   8.0881673
  22.1450113  57.4164913   5.0331673  21.4080113  56.9624913   5.1461673
  22.7160113  57.0144913   5.5561673  22.1200113  57.2894913   5.1271673
  24.8770113  68.2644913   6.8211673  25.0830113  68.5654913   7.6131673
  24.8160113  68.9864913   6.3361673  24.8980113  68.4154913   6.8661673
  24.4110113  72.4784913  11.0671673  23.6580113  72.4604913  10.6261673
  24.5790113  73.3304913  11.1511673  24.3250113  72.6014913  11.0141673
  19.6480113  61.7454913  10.2371673  19.3260113  61.1694913   9.6671673
  19.2890113  62.5004913   9.9911673  19.5480113  61.7714913  10.1171673
  29.6890113  66.9034913   6.2791673  29.6570113  66.0414913   6.1441673
  28.9960113  67.2054913   5.8451673  29.5820113  66.8204913   6.1951673
  18.0830113  72.1014913  10.4851673  18.1240113  72.2274913  11.3481673
  18.7340113  71.5414913  10.3291673  18.1850113  72.0374913  10.5901673
  27.7940113  70.1634913   5.0761673  28.3210113  70.0804913   4.3851673
  27.4030113  69.3854913   5.1301673  27.8140113  70.0364913   4.9821673
  15.2620113  56.7514913   7.3071673  14.9190113  55.9844913   7.0731673
  14.5670113  57.2754913   7.3711673  15.1090113  56.7154913   7.2821673
  24.3080113  55.6074913   4.2841673  24.9780113  56.1514913   4.4111673
  23.8050113  56.0314913   3.7111673  24.3330113  55.7504913   4.2181673
  15.6760113  70.4844913  11.8451673  16.2710113  70.9154913  12.3171673
  15.3120113  71.1084913  11.3561673  15.7100113  70.6404913  11.8421673
  23.6670113  61.4154913   1.7771673  24.2180113  60.8084913   2.0771673
  23.2420113  61.6784913   2.4921673  23.6860113  61.3644913   1.9261673
  13.6030113  68.4734913   8.7741673  13.0290113  68.8894913   9.2831673
  14.3360113  68.9384913   8.8691673  13.6270113  68.6034913   8.8631673
  28.9110113  64.6194913  11.4901673  29.5450113  64.4494913  12.0641673
  29.3280113  65.0224913  10.8381673  29.0660113  64.6544913  11.4791673
  29.5360113  59.1834913  12.2281673  29.3400113  59.8274913  12.7831673
  28.8140113  58.6934913  12.2201673  29.4010113  59.2064913  12.3091673
  29.4350113  60.1244913   5.1991673  28.6020113  60.3744913   5.1271673
  29.3790113  59.2844913   5.4281673  29.3040113  60.0374913   5.2221673
  18.6950113  57.1124913  10.3931673  18.9290113  56.5364913   9.7801673
  17.8530113  56.9314913  10.5341673  18.6050113  57.0004913  10.3231673
  26.3220113  64.7304913  12.8451673  27.1930113  64.6944913  12.8091673
  26.1030113  65.1504913  12.1131673  26.4190113  64.7864913  12.7321673
  16.0760113  70.5554913   4.0261673  15.9970113  69.7454913   3.7101673
  15.6320113  71.0424913   3.4541673  15.9990113  70.5074913   3.8951673
  13.6480113  72.7994913   7.6071673  14.1410113  72.7434913   8.3251673
  13.8360113  72.0664913   7.1721673  13.7490113  72.6824913   7.6491673
  23.0860113  36.8373833  75.7791313  22.8410113  37.3253833  75.0991313
  23.9490113  36.7643833  75.6791313  23.1770113  36.8983833  75.6641313
  22.8950113  43.7533833  80.4501313  22.3710113  44.3493833  80.8131313
  23.2920113  43.3853833  81.1341313  22.8760113  43.7873833  80.6051313
  12.7640113  47.8933833  75.9061313  12.3230113  48.0113833  76.6491313
  12.4810113  47.1183833  75.6211313  12.6570113  47.7963833  75.9741313
  29.0390113  51.1943833  73.4211313  29.7400113  50.6753833  73.4171313
  28.4520113  50.7493833  72.9521313  29.0560113  51.0513833  73.3511313
  12.5070113  41.6853833  72.4131313  11.7290113  41.8473833  72.0531313
  12.5460113  40.8143833  72.4351313  12.3980113  41.5803833  72.3631313
  15.6460113  46.9483833  71.0851313  15.2540113  46.5773833  70.3991313
  15.5660113  46.3503833  71.7141313  15.5760113  46.8053833  71.0761313
  25.5660113  44.8203833  77.1261313  25.6460113  44.8243833  76.2571313
  24.9820113  44.1883833  77.2751313  25.4910113  44.7273833  77.0201313
  15.2730113  48.5893833  74.9851313  15.8810113  48.4193833  75.5881313
  14.5220113  48.4493833  75.4061313  15.2520113  48.5433833  75.1361313
  19.5550113  37.9243833  74.9341313  19.4850113  38.6013833  74.3881313
  20.2960113  37.5363833  74.6851313  19.6540113  37.9673833  74.8161313
  14.1640113  51.6803833  71.0621313  14.6310113  51.7643833  70.3301313
  14.6190113  51.1023833  71.5311313  14.3000113  51.6073833  71.0231313
  14.1500113  45.1493833  76.3631313  13.6880113  44.7573833  75.7361313
  14.8500113  44.6363833  76.4551313  14.1850113  45.0163833  76.2841313
  16.1510113  43.2493833  76.3861313  16.9680113  43.0623833  76.6291313
  15.6740113  42.6353833  76.7821313  16.2010113  43.1313833  76.4811313
  20.3550113  49.2303833  78.9961313  20.7030113  48.4313833  79.0261313
  21.0200113  49.7343833  78.7411313  20.5050113  49.1863833  78.9631313
  20.4120113  48.6793833  75.2071313  20.7430113  48.0353833  75.6931313
  20.6520113  48.4683833  74.3961313  20.4960113  48.5533833  75.1591313
  16.7480113  38.3433833  75.6521313  16.4520113  38.8443833  75.0021313
  17.6150113  38.4213833  75.5951313  16.8320113  38.4293833  75.5481313
  19.7270113  37.4853833  77.8751313  19.8000113  38.3453833  78.0041313
  19.6890113  37.4103833  77.0071313  19.7320113  37.6013833  77.7661313
  24.4000113  40.4113833  70.1741313  23.9500113  41.0923833  70.4811313
  24.5140113  39.9073833  70.8771313  24.3510113  40.4373833  70.3231313
  12.6060113  42.9103833  79.3761313  12.3500113  43.7413833  79.3011313
  11.9420113  42.5273833  79.7931313  12.4700113  42.9763833  79.4271313
  12.5160113  52.6203833  77.2761313  11.9240113  53.1783833  76.9631313
  12.9420113  52.3513833  76.5641313  12.4920113  52.6623833  77.1251313
  18.3560113  50.4643833  74.7561313  17.7770113  50.1893833  75.3481313
  18.9800113  49.8553833  74.7811313  18.3630113  50.3343833  74.8471313
  24.4990113  52.7523833  72.2781313  25.2260113  53.2243833  72.3801313
  24.7280113  51.9583833  72.5581313  24.6410113  52.7053833  72.3351313
  22.6670113  53.1443833  74.2681313  22.8810113  53.6713833  74.9301313
  23.4340113  52.9703833  73.8891313  22.8120113  53.1963833  74.3101313
  15.6350113  37.7273833  79.8671313  15.1140113  37.0993833  79.5591313
  16.2260113  37.2903833  80.3381313  15.6460113  37.5693833  79.8911313
  14.0610113  51.2903833  75.2071313  14.7170113  50.7153833  75.2221313
  14.4500113  52.0393833  74.9861313  14.2160113  51.3153833  75.1771313
  29.7940113  40.3843833  76.4691313  29.4480113  41.0623833  76.8951313
  29.1580113  39.7863833  76.4851313  29.6490113  40.3963833  76.5341313
  14.8790113  49.7773833  78.7071313  15.3020113  49.4213833  78.0331313
  15.2030113  49.3553833  79.3991313  14.9890113  49.6623833  78.7101313
  18.1100113  52.6293833  78.0031313  18.9540113  52.7333833  77.8081313
  17.8130113  53.4473833  78.0711313  18.1910113  52.7653833  77.9841313
  21.9170113  42.0263833  76.0901313  22.2040113  41.7943833  75.3001313
  22.6490113  42.1053833  76.5591313  22.0670113  42.0033833  76.0431313
  22.6390113  42.3653833  71.2111313  22.9200113  43.1533833  71.4601313
  21.8630113  42.5303833  70.8481313  22.5660113  42.5063833  71.1941313
  26.6800113  54.3393833  72.6781313  27.3450113  54.1913833  72.1331313
  27.0400113  54.2563833  73.4681313  26.8320113  54.3053833  72.7141313
  21.4980113  50.5363833  71.0271313  21.3170113  51.0813833  71.6841313
  22.2640113  50.8263833  70.7261313  21.5840113  50.6603833  71.0801313
  25.0050113  38.4323833  72.0811313  25.5450113  37.7503833  72.1571313
  25.0670113  38.8303833  72.8551313  25.0940113  38.3903833  72.2071313
  12.9590113  39.6003833  74.6501313  12.8450113  38.7363833  74.6811313
  12.4840113  39.8943833  75.3201313  12.8720113  39.5163833  74.7531313
  22.2630113  40.8083833  73.3951313  21.7550113  40.1463833  73.1411313
  22.3150113  41.3123833  72.6851313  22.1960113  40.7853833  73.2531313
  22.2630113  37.7493833  73.2861313  21.8080113  37.3473833  72.6601313
  23.0360113  37.9043833  72.9111313  22.3100113  37.7133833  73.1381313
  29.0890113  54.1063833  76.6761313  28.6340113  54.8233833  76.8771313
  28.4750113  53.5353833  76.4341313  28.9310113  54.1283833  76.6701313
  20.8610113  40.1163833  77.8081313  20.9350113  40.6843833  77.1501313
  20.9820113  40.6083833  78.5181313  20.8890113  40.2733833  77.8161313
  26.0860113  49.9513833  76.2201313  26.7870113  49.4693833  76.4091313
  25.4260113  49.3823833  76.2651313  26.0920113  49.7963833  76.2541313
  15.4690113  35.9393833  76.1561313  16.0050113  36.6273833  76.1461313
  15.4720113  35.6653833  75.3281313  15.5480113  36.0003833  76.0321313
  18.4250113  46.3723833  80.1811313  18.5970113  46.1623833  81.0101313
  17.7700113  45.8383833  79.9651313  18.3540113  46.2623833  80.2721313
  25.9090113  36.2303833  76.5321313  25.9580113  35.9123833  77.3431313
  26.2320113  35.5863833  76.0391313  25.9640113  36.0883833  76.5791313
  15.9170113  39.7493833  77.8101313  16.1890113  39.3193833  77.1021313
  15.7410113  39.1133833  78.3811313  15.9310113  39.5923833  77.7901313
  28.6050113  47.4443833  72.0281313  28.7240113  47.1573833  72.8431313
  29.4120113  47.4653833  71.6981313  28.7410113  47.4053833  72.1001313
  15.7410113  47.1763833  77.3591313  16.5920113  47.0963833  77.1861313
  15.3840113  46.4943833  76.9471313  15.8140113  47.0633833  77.2721313
  14.5080113  53.9013833  78.5961313  13.8350113  53.4033833  78.3511313
  14.9110113  54.0863833  77.8451313  14.4680113  53.8553833  78.4491313
  14.0580113  40.8513833  80.8921313  14.9010113  41.0713833  80.8491313
  13.6690113  41.4243833  80.3611313  14.1250113  40.9683833  80.8071313
  26.5000113  43.9813833  71.6131313  26.2800113  44.7123833  71.1911313
  26.0520113  44.0323833  72.3601313  26.4010113  44.0963833  71.6611313
  18.1090113  47.1833833  75.5941313  18.8220113  47.6783833  75.6841313
  18.3310113  46.6163833  74.9681313  18.2470113  47.1723833  75.5151313
  30.6870113  38.8423833  71.0661313  30.0250113  38.2743833  71.0891313
  30.4940113  39.3543833  70.3861313  30.5610113  38.8343833  70.9691313
  12.2650113  48.8263833  78.9141313  11.5980113  49.3143833  79.1901313
  12.9450113  49.3713833  78.9431313  12.2670113  48.9783833  78.9591313
  12.3310113  45.5103833  74.0171313  12.1460113  44.6713833  74.1691313
  12.9900113  45.4743833  73.4471313  12.4010113  45.3813833  73.9551313
  28.6890113  38.4003833  73.3451313  29.4350113  37.9933833  73.5441313
  28.9520113  39.1153833  72.9201313  28.8380113  38.4463833  73.3121313
  22.6320113  50.8863833  77.9211313  22.1090113  51.5203833  77.6281313
  22.9420113  50.5223833  77.1921313  22.6000113  50.9263833  77.7701313
  12.5030113  49.6743833  73.5921313  13.0550113  50.2433833  73.9561313
  12.2710113  49.1593833  74.2571313  12.5500113  49.6823833  73.7441313
  16.7070113  48.6743833  80.6811313  17.1740113  48.9633833  81.3591313
  17.2790113  48.1963833  80.2271313  16.8610113  48.6463833  80.7141313
  25.1430113  40.6883833  78.4181313  25.4870113  40.8403833  79.2051313
  24.6900113  39.9503833  78.5311313  25.1270113  40.6013833  78.5511313
  12.3330113  48.1233833  71.2201313  13.0890113  47.6913833  71.2781313
  12.3480113  48.6553833  71.9111313  12.4470113  48.1383833  71.3311313
  13.2730113  46.3443833  79.2251313  13.7040113  46.2153833  78.4781313
  13.0680113  47.1923833  79.1991313  13.3060113  46.4503833  79.1111313
  19.6190113  39.9083833  72.8751313  19.6170113  39.7913833  72.0101313
  19.4380113  40.7563833  72.9671313  19.5920113  40.0163833  72.7611313
  17.3570113  49.8603833  77.5071313  17.4830113  50.7033833  77.6941313
  18.0250113  49.4613833  77.9031313  17.4750113  49.9263833  77.5931313
  15.9720113  42.7403833  72.5091313  15.8440113  42.2923833  73.2471313
  15.3900113  42.3983833  71.9571313  15.8670113  42.6233833  72.5371313
  16.1390113  44.5703833  79.1081313  15.3580113  44.5113833  78.7251313
  16.2110113  43.8183833  79.5451313  16.0340113  44.4513833  79.1161313
  26.4640113  42.0203833  80.9721313  25.8020113  42.3483833  81.4351313
  26.6510113  42.6543833  80.4031313  26.3940113  42.1623833  80.9561313
  24.6570113  39.9893833  74.4831313  25.1470113  40.7063833  74.4061313
  23.8670113  40.2503833  74.2201313  24.6130113  40.1333833  74.4331313
  21.2390113  41.4593833  80.2081313  21.7190113  42.1583833  80.4161313
  21.6120113  40.8123833  80.6591313  21.3650113  41.4673833  80.3051313
  23.4280113  44.6283833  72.4821313  23.4200113  45.3503833  71.9921313
  22.7890113  44.7633833  73.0591313  23.3330113  44.7553833  72.4951313
  28.4000113  48.4983833  76.4631313  28.7560113  48.1483833  77.1781313
  28.3920113  47.8373833  75.8931313  28.4520113  48.3483833  76.4841313
  24.4450113  51.5643833  80.3071313  23.8420113  51.2683833  79.7501313
  24.9900113  52.0163833  79.7981313  24.4360113  51.5873833  80.1491313
  24.4580113  48.4153833  79.7071313  23.6610113  48.6393833  79.9811313
  24.7160113  47.8213833  80.2921313  24.3780113  48.3603833  79.8341313
  18.3500113  53.2273833  74.1551313  18.2030113  52.4513833  74.5261313
  19.0390113  53.0803833  73.6401313  18.4300113  53.0903833  74.1341313
  18.0210113  36.9703833  72.1431313  18.1180113  36.8633833  73.0041313
  17.3130113  37.4763833  72.0781313  17.9310113  37.0293833  72.2611313
  20.6420113  52.7433833  72.5571313  21.2640113  52.9063833  73.1471313
  20.6780113  53.4343833  72.0251313  20.7390113  52.8693833  72.5661313
  15.1430113  45.2773833  73.3861313  15.4670113  44.4983833  73.1641313
  15.7890113  45.6453833  73.8411313  15.2860113  45.2163833  73.4201313
  12.1400113  36.9383833  74.3541313  12.2690113  36.2303833  73.8621313
  11.7730113  36.6203833  75.0791313  12.1050113  36.7863833  74.3891313
  21.8330113  44.6193833  74.8111313  21.8920113  45.2693833  75.3901313
  21.6440113  43.9233833  75.3021313  21.8140113  44.6123833  74.9691313
  27.0590113  48.9483833  80.6801313  26.5800113  49.2463833  80.0141313
  26.7030113  48.1723833  80.8581313  26.9360113  48.8773833  80.6081313
  16.3290113  39.1363833  71.3231313  15.8180113  39.1893833  70.6171313
  17.1130113  39.3763833  71.0271313  16.3690113  39.1793833  71.1751313
  21.0560113  46.6663833  79.2421313  20.2090113  46.4723833  79.3231313
  21.3800113  46.5013833  80.0351313  20.9780113  46.6133833  79.3711313
  17.8080113  53.3963833  70.1281313  18.2470113  52.6993833  70.4161313
  18.0150113  54.0203833  70.7011313  17.9040113  53.3853833  70.2551313
  14.9040113  46.3593833  81.5581313  15.6260113  46.8473833  81.5211313
  14.6340113  46.3293833  80.7291313  14.9710113  46.4273833  81.4301313
  18.1340113  41.5303833  78.2931313  18.9800113  41.3403833  78.3911313
  17.7640113  40.7533833  78.1551313  18.2040113  41.3873833  78.2871313
  30.7510113  53.1143833  72.6201313  31.4450113  52.6473833  72.3721313
  30.2120113  52.5163833  72.9571313  30.7740113  52.9563833  72.6331313
  12.9550113  42.8683833  74.9481313  13.4440113  42.5763833  75.6091313
  13.0840113  42.2753833  74.3211313  13.0460113  42.7373833  74.9531313
  17.4800113  44.3023833  70.4341313  16.8700113  43.8973833  70.9081313
  17.0940113  44.4203833  69.6611313  17.3330113  44.2593833  70.3901313
  29.2460113  45.9613833  79.2361313  28.9600113  46.3623833  79.9561313
  30.1060113  45.8993833  79.3631313  29.3310113  46.0113833  79.3611313
  18.9350113  42.7633833  73.1441313  19.2070113  43.5893833  73.2111313
  18.0720113  42.8383833  73.0481313  18.8480113  42.8963833  73.1391313
  12.4150113  38.7333833  79.6801313  12.4590113  39.0773833  78.8791313
  13.1700113  38.9703833  80.0471313  12.5330113  38.8193833  79.6161313
  30.3770113  51.5943833  79.7651313  30.6670113  51.8513833  78.9841313
  31.0720113  51.6903833  80.2841313  30.5230113  51.6463833  79.7261313
  26.9820113  50.1973833  71.7471313  27.3160113  49.3913833  71.7821313
  26.2270113  50.1253833  72.1771313  26.9200113  50.0673833  71.8161313
  27.4640113  42.0313833  77.4061313  26.7190113  41.7083833  77.7241313
  27.4660113  42.8573833  77.6861313  27.3540113  42.1053833  77.4941313
  24.3560113  48.0723833  71.1501313  25.0400113  47.5583833  70.9811313
  23.9390113  48.1183833  70.3851313  24.3950113  48.0033833  71.0121313
  20.8180113  53.0383833  77.1731313  21.3640113  53.7173833  77.2271313
  20.4680113  53.1203833  76.3781313  20.8470113  53.1513833  77.0631313
  19.0010113  51.2663833  80.5621313  18.3770113  51.8483833  80.3801313
  19.2490113  50.9803833  79.7761313  18.9450113  51.3103833  80.4191313
  29.0820113  42.5963833  71.3941313  29.4600113  43.2733833  70.9941313
  28.2400113  42.8203833  71.4251313  29.0130113  42.7293833  71.3391313
  20.5950113  46.0423833  70.4771313  19.7900113  45.8653833  70.1921313
  20.5620113  46.8933833  70.6691313  20.4710113  46.1413833  70.4641313
  16.5250113  42.1093833  80.6271313  16.9650113  42.0063833  79.8811313
  17.0700113  41.7963833  81.2321313  16.6700113  42.0483833  80.6061313
  26.7770113  42.1953833  74.7691313  26.9840113  41.9943833  75.5931313
  27.5330113  42.4633833  74.4271313  26.9190113  42.2053833  74.8401313
  20.0720113  37.0943833  80.6741313  19.2460113  36.9453833  80.9111313
  20.0320113  37.1293833  79.8031313  19.9440113  37.0773833  80.5801313
  27.7990113  38.2783833  76.2431313  27.0850113  37.8073833  76.4141313
  27.6370113  38.6193833  75.4571313  27.6700113  38.2593833  76.1521313
  28.2420113  46.2223833  74.6231313  28.7180113  45.4933833  74.5751313
  27.4210113  45.9363833  74.5471313  28.1910113  46.0723833  74.6041313
  15.7010113  40.2363833  73.9341313  15.8270113  39.9073833  73.1361313
  14.8890113  39.9873833  74.1331313  15.6000113  40.1513833  73.8461313
  24.4580113  47.3893833  76.9781313  24.5340113  47.7303833  77.7771313
  24.6270113  46.5423833  77.0991313  24.4940113  47.3143833  77.1141313
  21.9800113  46.6633833  76.5431313  21.6820113  46.3483833  77.3001313
  22.6750113  47.1363833  76.7781313  22.0390113  46.6863833  76.6901313
  25.9090113  53.6193833  79.0731313  25.4580113  54.2623833  79.4521313
  26.6170113  53.5403833  79.5781313  25.9470113  53.7023833  79.2041313
  29.0120113  43.3353833  74.0651313  29.1150113  43.2773833  73.2011313
  29.7530113  43.0033833  74.3831313  29.1370113  43.2783833  73.9841313
  22.9320113  50.3003833  75.1721313  22.7270113  51.1333833  75.0131313
  22.1570113  49.9183833  75.2941313  22.7870113  50.3673833  75.1671313
  14.3060113  41.8573833  70.4671313  13.6340113  41.8713833  71.0231313
  14.4010113  41.0093833  70.2831313  14.2210113  41.7343833  70.5221313
  22.9870113  38.4713833  78.0571313  22.2870113  38.9893833  78.0011313
  23.0250113  38.0913833  77.2731313  22.8890113  38.4923833  77.9331313
  18.2940113  50.5623833  71.5811313  18.7350113  50.6423833  72.3291313
  17.4890113  50.3463833  71.8391313  18.2400113  50.5423833  71.7301313
  26.5850113  38.9873833  80.8571313  27.4400113  39.0863833  81.0021313
  26.2160113  39.5403833  81.4221313  26.6570113  39.0843833  80.9621313
  26.8890113  44.2673833  79.3481313  27.5550113  44.8083833  79.5081313
  26.5440113  44.5783833  78.6091313  26.9360113  44.3933833  79.2631313
  27.2020113  52.3333833  75.1551313  27.0280113  51.6793833  75.7051313
  27.9150113  52.0623833  74.7321313  27.2820113  52.1963833  75.1741313
  15.6230113  49.6323833  72.1821313  15.3790113  49.3253833  72.9621313
  15.5900113  48.9293833  71.6661313  15.5820113  49.4833833  72.2211313
  18.4420113  47.8773833  70.9251313  17.6240113  47.6093833  71.0651313
  18.4140113  48.7293833  71.1101313  18.3170113  47.9643833  70.9731313
  22.1450113  38.9383833  81.0581313  21.4080113  38.4843833  81.1711313
  22.7160113  38.5363833  81.5811313  22.1200113  38.8113833  81.1521313
  20.4440113  36.5193833  70.8891313  20.5220113  36.7663833  70.0561313
  19.7010113  36.8963833  71.1471313  20.3460113  36.6113833  70.8041313
  27.7940113  51.6853833  81.1011313  28.3210113  51.6023833  80.4101313
  27.4030113  50.9073833  81.1551313  27.8140113  51.5583833  81.0071313
  24.3080113  37.1293833  80.3091313  24.9780113  37.6733833  80.4361313
  23.8050113  37.5533833  79.7361313  24.3330113  37.2723833  80.2431313
  23.6670113  42.9373833  77.8021313  24.2180113  42.3303833  78.1021313
  23.2420113  43.2003833  78.5171313  23.6860113  42.8863833  77.9511313
  13.9150113  41.5873833  77.2881313  13.5470113  41.8893833  78.0191313
  14.4490113  40.9583833  77.5721313  13.9390113  41.5393833  77.4381313
  25.6370113  44.7683833  74.3641313  25.7050113  43.9183833  74.5451313
  24.8140113  44.8543833  74.0861313  25.5250113  44.6553833  74.3501313
  15.3890113  53.2623833  73.5741313  15.2440113  53.4183833  72.7281313
  16.2550113  53.3413833  73.6521313  15.4960113  53.2973833  73.4611313
  19.5560113  45.6593833  73.3021313  19.6560113  45.7983833  72.4471313
  20.3740113  45.5993833  73.5981313  19.6910113  45.6703833  73.2191313
  28.7160113  53.7233833  70.7821313  29.3530113  53.5893833  71.3631313
  28.3750113  52.9293833  70.6651313  28.7600113  53.5863833  70.8501313
  24.7910113  49.9883833  73.1041313  24.5400113  49.8603833  73.9301313
  24.4740113  49.2933833  72.6831313  24.7070113  49.8673833  73.1641313
  29.4350113  41.6463833  81.2241313  28.6020113  41.8963833  81.1521313
  29.3790113  40.8063833  81.4531313  29.3040113  41.5593833  81.2471313
  16.0760113  52.0773833  80.0511313  15.9970113  51.2673833  79.7351313
  15.6320113  52.5643833  79.4791313  15.9990113  52.0293833  79.9201313
  21.6770113  48.1963833  72.5341313  22.3940113  47.8493833  72.1781313
  21.6430113  48.9963833  72.1861313  21.7780113  48.2633833  72.4301313
  23.0860113  36.8373833  56.7728903  22.8410113  37.3253833  56.0928903
  23.9490113  36.7643833  56.6728903  23.1770113  36.8983833  56.6578903
  22.8950113  43.7533833  61.4438903  22.3710113  44.3493833  61.8068903
  23.2920113  43.3853833  62.1278903  22.8760113  43.7873833  61.5988903
  12.7640113  47.8933833  56.8998903  12.3230113  48.0113833  57.6428903
  12.4810113  47.1183833  56.6148903  12.6570113  47.7963833  56.9678903
  12.5070113  41.6853833  53.4068903  11.7290113  41.8473833  53.0468903
  12.5460113  40.8143833  53.4288903  12.3980113  41.5803833  53.3568903
  15.6460113  46.9483833  52.0788903  15.2540113  46.5773833  51.3928903
  15.5660113  46.3503833  52.7078903  15.5760113  46.8053833  52.0698903
  25.5660113  44.8203833  58.1198903  25.6460113  44.8243833  57.2508903
  24.9820113  44.1883833  58.2688903  25.4910113  44.7273833  58.0138903
  15.2730113  48.5893833  55.9788903  15.8810113  48.4193833  56.5818903
  14.5220113  48.4493833  56.3998903  15.2520113  48.5433833  56.1298903
  19.5550113  37.9243833  55.9278903  19.4850113  38.6013833  55.3818903
  20.2960113  37.5363833  55.6788903  19.6540113  37.9673833  55.8098903
  14.1640113  51.6803833  52.0558903  14.6310113  51.7643833  51.3238903
  14.6190113  51.1023833  52.5248903  14.3000113  51.6073833  52.0168903
  12.7040113  50.6283833  63.1548903  12.8330113  50.3483833  63.9708903
  12.0940113  50.0873833  62.8458903  12.6330113  50.5073833  63.2298903
  19.2780113  48.1533833  68.2218903  19.0420113  48.1503833  69.0618903
  18.5300113  48.0053833  67.7978903  19.1320113  48.1303833  68.2828903
  14.1500113  45.1493833  57.3568903  13.6880113  44.7573833  56.7298903
  14.8500113  44.6363833  57.4488903  14.1850113  45.0163833  57.2778903
  18.6580113  40.7593833  62.7038903  19.3360113  40.7773833  62.1548903
  18.6130113  39.9233833  62.9488903  18.7510113  40.6383833  62.6588903
  19.2600113  51.3453833  65.4848903  19.3980113  52.1053833  65.0778903
  20.0510113  50.9803833  65.5118903  19.3970113  51.4043833  65.4288903
  16.1510113  43.2493833  57.3798903  16.9680113  43.0623833  57.6228903
  15.6740113  42.6353833  57.7758903  16.2010113  43.1313833  57.4748903
  20.3550113  49.2303833  59.9898903  20.7030113  48.4313833  60.0198903
  21.0200113  49.7343833  59.7348903  20.5050113  49.1863833  59.9568903
  20.4120113  48.6793833  56.2008903  20.7430113  48.0353833  56.6868903
  20.6520113  48.4683833  55.3898903  20.4960113  48.5533833  56.1528903
  22.3800113  42.8103833  67.5398903  21.5320113  42.7113833  67.3618903
  22.4090113  43.5553833  67.9938903  22.2590113  42.9063833  67.5808903
  16.7480113  38.3433833  56.6458903  16.4520113  38.8443833  55.9958903
  17.6150113  38.4213833  56.5888903  16.8320113  38.4293833  56.5418903
  26.9380113  35.7703833  66.6538903  26.7800113  36.5393833  66.2718903
  26.1660113  35.5503833  66.9978903  26.8000113  35.8513833  66.6488903
  19.7270113  37.4853833  58.8688903  19.8000113  38.3453833  58.9978903
  19.6890113  37.4103833  58.0008903  19.7320113  37.6013833  58.7598903
  12.6060113  42.9103833  60.3698903  12.3500113  43.7413833  60.2948903
  11.9420113  42.5273833  60.7868903  12.4700113  42.9763833  60.4208903
  12.5160113  52.6203833  58.2698903  11.9240113  53.1783833  57.9568903
  12.9420113  52.3513833  57.5578903  12.4920113  52.6623833  58.1188903
  18.3560113  50.4643833  55.7498903  17.7770113  50.1893833  56.3418903
  18.9800113  49.8553833  55.7748903  18.3630113  50.3343833  55.8408903
  15.6350113  37.7273833  60.8608903  15.1140113  37.0993833  60.5528903
  16.2260113  37.2903833  61.3318903  15.6460113  37.5693833  60.8848903
  18.9410113  39.8603833  70.1588903  19.0580113  39.4063833  69.4228903
  19.2290113  40.6583833  69.9558903  19.0010113  39.9113833  70.0198903
  14.0610113  51.2903833  56.2008903  14.7170113  50.7153833  56.2158903
  14.4500113  52.0393833  55.9798903  14.2160113  51.3153833  56.1708903
  29.7940113  40.3843833  57.4628903  29.4480113  41.0623833  57.8888903
  29.1580113  39.7863833  57.4788903  29.6490113  40.3963833  57.5278903
  25.1060113  53.1543833  63.5668903  25.8500113  53.6103833  63.5568903
  24.9850113  52.9403833  62.7298903  25.1980113  53.1903833  63.4418903
  14.6740113  39.4573833  69.1428903  13.8960113  39.0673833  69.0708903
  15.1650113  39.0453833  68.5518903  14.6310113  39.3383833  69.0448903
  14.8790113  49.7773833  59.7008903  15.3020113  49.4213833  59.0268903
  15.2030113  49.3553833  60.3928903  14.9890113  49.6623833  59.7038903
  18.1100113  52.6293833  58.9968903  18.9540113  52.7333833  58.8018903
  17.8130113  53.4473833  59.0648903  18.1910113  52.7653833  58.9778903
  21.3230113  37.1003833  68.3108903  21.5010113  36.2913833  68.0358903
  21.1800113  37.5413833  67.5718903  21.3280113  37.0463833  68.1608903
  21.9170113  42.0263833  57.0838903  22.2040113  41.7943833  56.2938903
  22.6490113  42.1053833  57.5528903  22.0670113  42.0033833  57.0368903
  17.1080113  53.8483833  64.7368903  17.4000113  53.7813833  65.5568903
  16.4820113  53.2433833  64.6918903  17.0590113  53.7493833  64.8518903
  29.4690113  38.7073833  62.8318903  30.2260113  38.7793833  62.4038903
  29.5320113  37.9343833  63.2308903  29.5900113  38.6043833  62.8268903
  12.0220113  40.0053833  66.7288903  12.0180113  40.5923833  67.3748903
  12.6160113  40.3173833  66.1718903  12.1090113  40.1383833  66.7418903
  24.3600113  50.3393833  67.2708903  24.3260113  50.7213833  68.0548903
  25.2140113  50.2973833  67.0998903  24.4810113  50.3893833  67.3618903
  12.9590113  39.6003833  55.6438903  12.8450113  38.7363833  55.6748903
  12.4840113  39.8943833  56.3138903  12.8720113  39.5163833  55.7468903
  15.1010113  52.0103833  63.8588903  14.4030113  51.5023833  63.9848903
  15.3610113  51.8053833  63.0508903  15.0360113  51.9053833  63.7578903
  22.8120113  53.5033833  64.7688903  23.5800113  53.4233833  64.3628903
  22.2290113  53.3823833  64.1308903  22.8390113  53.4733833  64.6148903
  20.8610113  40.1163833  58.8018903  20.9350113  40.6843833  58.1438903
  20.9820113  40.6083833  59.5118903  20.8890113  40.2733833  58.8098903
  26.0860113  49.9513833  57.2138903  26.7870113  49.4693833  57.4028903
  25.4260113  49.3823833  57.2588903  26.0920113  49.7963833  57.2478903
  16.4620113  50.8613833  66.4258903  17.3030113  50.9243833  66.2038903
  16.4250113  51.2583833  67.2018903  16.5810113  50.9293833  66.5078903
  15.4690113  35.9393833  57.1498903  16.0050113  36.6273833  57.1398903
  15.4720113  35.6653833  56.3218903  15.5480113  36.0003833  57.0258903
  18.4250113  46.3723833  61.1748903  18.5970113  46.1623833  62.0038903
  17.7700113  45.8383833  60.9588903  18.3540113  46.2623833  61.2658903
  24.6530113  40.2863833  64.6898903  24.5580113  40.6053833  65.4958903
  24.0600113  39.6473833  64.6518903  24.5510113  40.2383833  64.8038903
  19.1750113  46.3103833  63.7648903  19.2280113  47.1573833  63.9668903
  18.8900113  45.9403833  64.5018903  19.1410113  46.3803833  63.9028903
  25.3520113  47.0053833  62.8948903  24.8380113  46.5933833  63.4658903
  25.2260113  47.8493833  63.0758903  25.2580113  47.0693833  63.0058903
  25.9090113  36.2303833  57.5258903  25.9580113  35.9123833  58.3368903
  26.2320113  35.5863833  57.0328903  25.9640113  36.0883833  57.5728903
  11.9960113  50.6813833  69.9758903  12.7520113  51.0303833  70.2338903
  12.1730113  49.8283833  69.9188903  12.1340113  50.6063833  70.0058903
  28.3730113  40.4663833  65.8338903  29.1450113  40.2413833  66.1708903
  27.8980113  40.6833833  66.5338903  28.4170113  40.4653833  65.9868903
  15.9170113  39.7493833  58.8038903  16.1890113  39.3193833  58.0958903
  15.7410113  39.1133833  59.3748903  15.9310113  39.5923833  58.7838903
  15.7410113  47.1763833  58.3528903  16.5920113  47.0963833  58.1798903
  15.3840113  46.4943833  57.9408903  15.8140113  47.0633833  58.2658903
  14.5080113  53.9013833  59.5898903  13.8350113  53.4033833  59.3448903
  14.9110113  54.0863833  58.8388903  14.4680113  53.8553833  59.4428903
  14.0580113  40.8513833  61.8858903  14.9010113  41.0713833  61.8428903
  13.6690113  41.4243833  61.3548903  14.1250113  40.9683833  61.8008903
  30.8390113  51.9533833  67.2758903  30.1570113  52.2633833  66.8288903
  30.4700113  51.4953833  67.9208903  30.6830113  51.9313833  67.3048903
  18.1090113  47.1833833  56.5878903  18.8220113  47.6783833  56.6778903
  18.3310113  46.6163833  55.9618903  18.2470113  47.1723833  56.5088903
  30.6870113  38.8423833  52.0598903  30.0250113  38.2743833  52.0828903
  30.4940113  39.3543833  51.3798903  30.5610113  38.8343833  51.9628903
  12.2650113  48.8263833  59.9078903  11.5980113  49.3143833  60.1838903
  12.9450113  49.3713833  59.9368903  12.2670113  48.9783833  59.9528903
  19.9120113  42.5363833  70.0038903  19.4280113  43.1133833  70.4458903
  19.8840113  42.8313833  69.1828903  19.8360113  42.6653833  69.9478903
  31.0100113  43.2203833  64.6158903  31.2250113  42.4203833  64.3398903
  30.1600113  43.2803833  64.4268903  30.9160113  43.1113833  64.5468903
  12.3310113  45.5103833  55.0108903  12.1460113  44.6713833  55.1628903
  12.9900113  45.4743833  54.4408903  12.4010113  45.3813833  54.9488903
  22.6320113  50.8863833  58.9148903  22.1090113  51.5203833  58.6218903
  22.9420113  50.5223833  58.1858903  22.6000113  50.9263833  58.7638903
  12.5030113  49.6743833  54.5858903  13.0550113  50.2433833  54.9498903
  12.2710113  49.1593833  55.2508903  12.5500113  49.6823833  54.7378903
  16.7070113  48.6743833  61.6748903  17.1740113  48.9633833  62.3528903
  17.2790113  48.1963833  61.2208903  16.8610113  48.6463833  61.7078903
  25.1430113  40.6883833  59.4118903  25.4870113  40.8403833  60.1988903
  24.6900113  39.9503833  59.5248903  25.1270113  40.6013833  59.5448903
  12.3330113  48.1233833  52.2138903  13.0890113  47.6913833  52.2718903
  12.3480113  48.6553833  52.9048903  12.4470113  48.1383833  52.3248903
  13.2730113  46.3443833  60.2188903  13.7040113  46.2153833  59.4718903
  13.0680113  47.1923833  60.1928903  13.3060113  46.4503833  60.1048903
  19.6190113  39.9083833  53.8688903  19.6170113  39.7913833  53.0038903
  19.4380113  40.7563833  53.9608903  19.5920113  40.0163833  53.7548903
  28.6730113  52.3353833  65.3658903  28.0020113  52.8493833  65.5838903
  28.7360113  52.4353833  64.5018903  28.5830113  52.4263833  65.2708903
  17.3570113  49.8603833  58.5008903  17.4830113  50.7033833  58.6878903
  18.0250113  49.4613833  58.8968903  17.4750113  49.9263833  58.5868903
  15.4870113  43.3433833  68.3628903  14.9510113  42.8373833  68.8308903
  15.5070113  42.9533833  67.5828903  15.4100113  43.2103833  68.3168903
  15.9720113  42.7403833  53.5028903  15.8440113  42.2923833  54.2408903
  15.3900113  42.3983833  52.9508903  15.8670113  42.6233833  53.5308903
  16.1390113  44.5703833  60.1018903  15.3580113  44.5113833  59.7188903
  16.2110113  43.8183833  60.5388903  16.0340113  44.4513833  60.1098903
  16.5690113  44.3073833  63.5698903  16.5940113  43.6323833  63.0188903
  15.9230113  44.8033833  63.2578903  16.4780113  44.2803833  63.4428903
  26.4640113  42.0203833  61.9658903  25.8020113  42.3483833  62.4288903
  26.6510113  42.6543833  61.3968903  26.3940113  42.1623833  61.9498903
  20.6690113  53.0843833  62.9618903  20.3920113  52.4433833  62.4388903
  20.4610113  53.8103833  62.5238903  20.5980113  53.0973833  62.8198903
  23.1090113  37.9263833  65.3948903  23.2580113  37.1013833  65.1518903
  23.4880113  37.9813833  66.1788903  23.1870113  37.8123833  65.4748903
  14.3680113  45.6623833  69.1288903  14.3310113  46.1633833  68.4148903
  14.6990113  44.9103833  68.8338903  14.4110113  45.6243833  68.9798903
  25.9710113  47.8673833  67.3868903  26.4550113  48.5853833  67.4848903
  26.3650113  47.4403833  66.7358903  26.1010113  47.9103833  67.3048903
  20.2670113  50.7123833  68.5638903  20.6210113  50.5343833  69.3408903
  19.8310113  49.9833833  68.3648903  20.2550113  50.5783833  68.6498903
  21.2390113  41.4593833  61.2018903  21.7190113  42.1583833  61.4098903
  21.6120113  40.8123833  61.6528903  21.3650113  41.4673833  61.2988903
  24.4450113  51.5643833  61.3008903  23.8420113  51.2683833  60.7438903
  24.9900113  52.0163833  60.7918903  24.4360113  51.5873833  61.1428903
  24.4580113  48.4153833  60.7008903  23.6610113  48.6393833  60.9748903
  24.7160113  47.8213833  61.2858903  24.3780113  48.3603833  60.8278903
  18.3500113  53.2273833  55.1488903  18.2030113  52.4513833  55.5198903
  19.0390113  53.0803833  54.6338903  18.4300113  53.0903833  55.1278903
  18.0210113  36.9703833  53.1368903  18.1180113  36.8633833  53.9978903
  17.3130113  37.4763833  53.0718903  17.9310113  37.0293833  53.2548903
  27.7180113  46.4133833  65.5468903  27.7730113  46.5383833  64.6848903
  28.4710113  46.7333833  65.8488903  27.8370113  46.4783833  65.4638903
  23.9090113  51.7623833  69.8238903  24.0730113  52.0453833  70.6328903
  24.1720113  52.4233833  69.3188903  23.9720113  51.9023833  69.8688903
  28.7500113  36.7113833  68.5338903  28.1130113  36.3113833  68.0918903
  28.7760113  36.2803833  69.2918903  28.6600113  36.5893833  68.5798903
  15.1430113  45.2773833  54.3798903  15.4670113  44.4983833  54.1578903
  15.7890113  45.6453833  54.8348903  15.2860113  45.2163833  54.4138903
  23.4490113  46.2193833  65.1468903  23.2940113  46.8293833  65.7508903
  23.9830113  45.6613833  65.5528903  23.5050113  46.2273833  65.2958903
  12.1400113  36.9383833  55.3478903  12.2690113  36.2303833  54.8558903
  11.7730113  36.6203833  56.0728903  12.1050113  36.7863833  55.3828903
  16.3290113  39.1363833  52.3168903  15.8180113  39.1893833  51.6108903
  17.1130113  39.3763833  52.0208903  16.3690113  39.1793833  52.1688903
  21.0560113  46.6663833  60.2358903  20.2090113  46.4723833  60.3168903
  21.3800113  46.5013833  61.0288903  20.9780113  46.6133833  60.3648903
  17.8080113  53.3963833  51.1218903  18.2470113  52.6993833  51.4098903
  18.0150113  54.0203833  51.6948903  17.9040113  53.3853833  51.2488903
  14.9040113  46.3593833  62.5518903  15.6260113  46.8473833  62.5148903
  14.6340113  46.3293833  61.7228903  14.9710113  46.4273833  62.4238903
  18.1340113  41.5303833  59.2868903  18.9800113  41.3403833  59.3848903
  17.7640113  40.7533833  59.1488903  18.2040113  41.3873833  59.2808903
  12.9550113  42.8683833  55.9418903  13.4440113  42.5763833  56.6028903
  13.0840113  42.2753833  55.3148903  13.0460113  42.7373833  55.9468903
  27.9900113  45.8903833  62.7928903  27.9830113  45.1143833  63.1908903
  27.1490113  46.1243833  62.7858903  27.8650113  45.8103833  62.8508903
  17.4800113  44.3023833  51.4278903  16.8700113  43.8973833  51.9018903
  17.0940113  44.4203833  50.6548903  17.3330113  44.2593833  51.3838903
  14.2990113  47.4113833  66.8298903  13.8780113  46.8933833  66.2688903
  13.9470113  48.1973833  66.6868903  14.1850113  47.4513833  66.7258903
  29.2460113  45.9613833  60.2298903  28.9600113  46.3623833  60.9498903
  30.1060113  45.8993833  60.3568903  29.3310113  46.0113833  60.3548903
  18.9350113  42.7633833  54.1378903  19.2070113  43.5893833  54.2048903
  18.0720113  42.8383833  54.0418903  18.8480113  42.8963833  54.1328903
  26.9080113  39.8853833  68.7698903  26.3830113  40.3443833  69.2938903
  26.5470113  39.0903833  68.7638903  26.7770113  39.8353833  68.8458903
  12.4150113  38.7333833  60.6738903  12.4590113  39.0773833  59.8728903
  13.1700113  38.9703833  61.0408903  12.5330113  38.8193833  60.6098903
  25.4000113  43.4543833  68.8458903  25.4730113  43.5583833  69.7088903
  24.7660113  44.0123833  68.6248903  25.3170113  43.5523833  68.9408903
  27.6680113  43.7733833  67.2108903  27.9870113  44.5593833  67.4138903
  27.2980113  43.5033833  67.9538903  27.6610113  43.8493833  67.3508903
  27.4640113  42.0313833  58.3998903  26.7190113  41.7083833  58.7178903
  27.4660113  42.8573833  58.6798903  27.3540113  42.1053833  58.4878903
  30.3660113  44.3153833  69.9458903  30.3140113  43.9743833  69.1448903
  31.1030113  44.7823833  69.9238903  30.4670113  44.3343833  69.8238903
  29.9040113  47.9913833  66.1518903  30.5320113  47.4423833  65.8958903
  29.8430113  48.5563833  65.4898903  29.9880113  47.9943833  66.0158903
  19.0380113  49.2223833  63.4478903  18.7400113  49.8143833  64.0148903
  19.0930113  49.6643833  62.6988903  19.0020113  49.3753833  63.4208903
  17.0170113  48.1723833  66.8458903  16.2110113  47.8823833  67.0128903
  16.9280113  49.0403833  66.8518903  16.8850113  48.2573833  66.8708903
  26.3760113  38.3613833  65.8608903  27.1200113  38.8133833  65.7978903
  25.8100113  38.8313833  65.3918903  26.4030113  38.4983833  65.7828903
  21.5540113  45.6453833  62.9388903  22.0300113  46.0193833  63.5668903
  20.7310113  45.7793833  63.1978903  21.5030113  45.7203833  63.0698903
  18.2640113  41.2483833  65.6798903  18.4250113  40.5043833  66.1068903
  18.2190113  40.9993833  64.8448903  18.2810113  41.1013833  65.6198903
  20.8180113  53.0383833  58.1668903  21.3640113  53.7173833  58.2208903
  20.4680113  53.1203833  57.3718903  20.8470113  53.1513833  58.0568903
  27.6610113  36.3413833  63.5308903  27.3810113  37.1663833  63.4868903
  28.3770113  36.3943833  64.0268903  27.7260113  36.4713833  63.5978903
  20.0160113  37.0563833  65.5598903  20.7210113  37.3763833  65.1578903
  20.2570113  36.2493833  65.7868903  20.1550113  36.9843833  65.5338903
  19.0010113  51.2663833  61.5558903  18.3770113  51.8483833  61.3738903
  19.2490113  50.9803833  60.7698903  18.9450113  51.3103833  61.4128903
  23.3100113  47.9003833  68.5448903  24.0670113  48.1863833  68.2188903
  22.7630113  47.9523833  67.8668903  23.3410113  47.9503833  68.3958903
  27.2190113  50.4503833  67.0488903  27.5650113  50.7203833  67.8028903
  27.5130113  51.0323833  66.4688903  27.3140113  50.5763833  67.0748903
  16.5250113  42.1093833  61.6208903  16.9650113  42.0063833  60.8748903
  17.0700113  41.7963833  62.2258903  16.6700113  42.0483833  61.5998903
  24.5410113  41.2113833  67.2128903  23.8930113  41.6813833  67.5608903
  25.1060113  41.1223833  67.8718903  24.5290113  41.2673833  67.3618903
  24.2290113  42.7483833  63.5108903  24.5310113  43.1683833  64.2138903
  24.2650113  41.9083833  63.7428903  24.2790113  42.6863833  63.6488903
  21.6540113  52.9153833  67.4358903  22.1320113  52.3153833  67.0198903
  21.3030113  52.4723833  68.1008903  21.6730113  52.7613833  67.4728903
  20.0720113  37.0943833  61.6678903  19.2460113  36.9453833  61.9048903
  20.0320113  37.1293833  60.7968903  19.9440113  37.0773833  61.5738903
  27.7990113  38.2783833  57.2368903  27.0850113  37.8073833  57.4078903
  27.6370113  38.6193833  56.4508903  27.6700113  38.2593833  57.1458903
  21.7130113  48.1343833  66.4558903  20.9180113  48.0703833  66.8068903
  21.7840113  48.9813833  66.2608903  21.6060113  48.2493833  66.4788903
  12.6370113  37.4923833  67.7028903  12.4970113  38.2873833  67.3718903
  11.8510113  37.2493833  67.9918903  12.5000113  37.5743833  67.6968903
  17.5430113  54.3413833  61.7728903  17.5540113  54.4003833  62.6428903
  17.1180113  53.5943833  61.6228903  17.4820113  54.2393833  61.8788903
  15.7010113  40.2363833  54.9278903  15.8270113  39.9073833  54.1298903
  14.8890113  39.9873833  55.1268903  15.6000113  40.1513833  54.8398903
  24.4580113  47.3893833  57.9718903  24.5340113  47.7303833  58.7708903
  24.6270113  46.5423833  58.0928903  24.4940113  47.3143833  58.1078903
  21.9800113  46.6633833  57.5368903  21.6820113  46.3483833  58.2938903
  22.6750113  47.1363833  57.7718903  22.0390113  46.6863833  57.6838903
  22.2020113  50.7813833  65.5638903  22.8890113  50.6673833  66.0888903
  22.3360113  51.5723833  65.2198903  22.3230113  50.8813833  65.5908903
  30.3780113  43.3903833  67.3748903  29.5230113  43.2683833  67.5008903
  30.5310113  42.9953833  66.6118903  30.2740113  43.3133833  67.2808903
  24.8910113  44.0553833  65.9508903  24.6360113  43.3363833  66.3728903
  25.7120113  44.1713833  66.2208903  24.9750113  43.9663833  66.0528903
  14.3070113  53.8393833  67.2148903  13.6530113  53.2703833  67.3128903
  13.9320113  54.6123833  67.3658903  14.1550113  53.8693833  67.2518903
  22.8250113  45.2453833  69.1378903  23.1480113  45.9313833  68.7058903
  22.1210113  45.5683833  69.5398903  22.7680113  45.3943833  69.1328903
  22.6100113  48.7093833  62.9968903  21.9160113  49.1113833  63.3398903
  23.2870113  49.1423833  63.3358903  22.6070113  48.8323833  63.0978903
  27.9870113  51.3023833  69.5768903  28.7630113  50.9123833  69.6598903
  27.5180113  50.9663833  70.2318903  28.0320113  51.1953833  69.6858903
  15.6780113  42.2473833  65.3438903  16.0530113  42.8663833  64.8568903
  16.3520113  41.7733833  65.6288903  15.8330113  42.2693833  65.3138903
  13.4530113  40.6953833  64.6188903  13.5300113  40.5263833  63.7658903
  14.1990113  41.1013833  64.8158903  13.5740113  40.7303833  64.5218903
  16.0070113  38.1053833  67.0298903  15.9260113  37.2613833  67.2358903
  15.6930113  38.1493833  66.2168903  15.9490113  37.9873833  66.9398903
  22.9320113  50.3003833  56.1658903  22.7270113  51.1333833  56.0068903
  22.1570113  49.9183833  56.2878903  22.7870113  50.3673833  56.1608903
  28.1140113  43.4813833  64.4148903  28.1120113  42.6183833  64.5388903
  28.1810113  43.8053833  65.2218903  28.1240113  43.4013833  64.5518903
  12.8500113  45.9213833  64.8428903  13.1700113  46.1403833  64.0618903
  12.7500113  45.0563833  64.7878903  12.8820113  45.8263833  64.7198903
  14.3060113  41.8573833  51.4608903  13.6340113  41.8713833  52.0168903
  14.4010113  41.0093833  51.2768903  14.2210113  41.7343833  51.5158903
  23.9930113  38.2813833  68.1968903  24.0850113  38.9933833  68.6908903
  23.3560113  37.8363833  68.5938903  23.9120113  38.3203833  68.3288903
  22.9870113  38.4713833  59.0508903  22.2870113  38.9893833  58.9948903
  23.0250113  38.0913833  58.2668903  22.8890113  38.4923833  58.9268903
  18.2940113  50.5623833  52.5748903  18.7350113  50.6423833  53.3228903
  17.4890113  50.3463833  52.8328903  18.2400113  50.5423833  52.7238903
  26.5850113  38.9873833  61.8508903  27.4400113  39.0863833  61.9958903
  26.2160113  39.5403833  62.4158903  26.6570113  39.0843833  61.9558903
  17.6130113  45.2133833  66.2278903  17.2170113  45.9873833  66.3028903
  17.2070113  44.8403833  65.5518903  17.4950113  45.2723833  66.1388903
  26.8890113  44.2673833  60.3418903  27.5550113  44.8083833  60.5018903
  26.5440113  44.5783833  59.6028903  26.9360113  44.3933833  60.2568903
  15.6230113  49.6323833  53.1758903  15.3790113  49.3253833  53.9558903
  15.5900113  48.9293833  52.6598903  15.5820113  49.4833833  53.2148903
  18.4420113  47.8773833  51.9188903  17.6240113  47.6093833  52.0588903
  18.4140113  48.7293833  52.1038903  18.3170113  47.9643833  51.9668903
  18.0420113  38.1903833  63.6778903  17.1780113  38.2743833  63.7578903
  18.2620113  37.6763833  64.3468903  17.9470113  38.1273833  63.7888903
  30.0600113  36.8253833  65.0068903  30.0080113  36.7813833  65.8768903
  30.7470113  36.3223833  64.8168903  30.1540113  36.7453833  65.1068903
  22.1450113  38.9383833  62.0518903  21.4080113  38.4843833  62.1648903
  22.7160113  38.5363833  62.5748903  22.1200113  38.8113833  62.1458903
  24.8770113  49.7863833  63.8398903  25.0830113  50.0873833  64.6318903
  24.8160113  50.5083833  63.3548903  24.8980113  49.9373833  63.8848903
  24.4110113  54.0003833  68.0858903  23.6580113  53.9823833  67.6448903
  24.5790113  54.8523833  68.1698903  24.3250113  54.1233833  68.0328903
  19.6480113  43.2673833  67.2558903  19.3260113  42.6913833  66.6858903
  19.2890113  44.0223833  67.0098903  19.5480113  43.2933833  67.1358903
  18.0830113  53.6233833  67.5038903  18.1240113  53.7493833  68.3668903
  18.7340113  53.0633833  67.3478903  18.1850113  53.5593833  67.6088903
  27.7940113  51.6853833  62.0948903  28.3210113  51.6023833  61.4038903
  27.4030113  50.9073833  62.1488903  27.8140113  51.5583833  62.0008903
  15.2620113  38.2733833  64.3258903  14.9190113  37.5063833  64.0918903
  14.5670113  38.7973833  64.3898903  15.1090113  38.2373833  64.3008903
  24.3080113  37.1293833  61.3028903  24.9780113  37.6733833  61.4298903
  23.8050113  37.5533833  60.7298903  24.3330113  37.2723833  61.2368903
  15.6760113  52.0063833  68.8638903  16.2710113  52.4373833  69.3358903
  15.3120113  52.6303833  68.3748903  15.7100113  52.1623833  68.8608903
  23.6670113  42.9373833  58.7958903  24.2180113  42.3303833  59.0958903
  23.2420113  43.2003833  59.5108903  23.6860113  42.8863833  58.9448903
  13.9150113  41.5873833  58.2818903  13.5470113  41.8893833  59.0128903
  14.4490113  40.9583833  58.5658903  13.9390113  41.5393833  58.4318903
  13.6030113  49.9953833  65.7928903  13.0290113  50.4113833  66.3018903
  14.3360113  50.4603833  65.8878903  13.6270113  50.1253833  65.8818903
  15.3890113  53.2623833  54.5678903  15.2440113  53.4183833  53.7218903
  16.2550113  53.3413833  54.6458903  15.4960113  53.2973833  54.4548903
  28.9110113  46.1413833  68.5088903  29.5450113  45.9713833  69.0828903
  29.3280113  46.5443833  67.8568903  29.0660113  46.1763833  68.4978903
  29.5360113  40.7053833  69.2468903  29.3400113  41.3493833  69.8018903
  28.8140113  40.2153833  69.2388903  29.4010113  40.7283833  69.3278903
  29.4350113  41.6463833  62.2178903  28.6020113  41.8963833  62.1458903
  29.3790113  40.8063833  62.4468903  29.3040113  41.5593833  62.2408903
  18.6950113  38.6343833  67.4118903  18.9290113  38.0583833  66.7988903
  17.8530113  38.4533833  67.5528903  18.6050113  38.5223833  67.3418903
  26.3220113  46.2523833  69.8638903  27.1930113  46.2163833  69.8278903
  26.1030113  46.6723833  69.1318903  26.4190113  46.3083833  69.7508903
  16.0760113  52.0773833  61.0448903  15.9970113  51.2673833  60.7288903
  15.6320113  52.5643833  60.4728903  15.9990113  52.0293833  60.9138903
  13.6480113  54.3213833  64.6258903  14.1410113  54.2653833  65.3438903
  13.8360113  53.5883833  64.1908903  13.7490113  54.2043833  64.6678903
  12.7640113  47.8933833  37.8936493  12.3230113  48.0113833  38.6366493
  12.4810113  47.1183833  37.6086493  12.6570113  47.7963833  37.9616493
  12.5070113  41.6853833  34.4006493  11.7290113  41.8473833  34.0406493
  12.5460113  40.8143833  34.4226493  12.3980113  41.5803833  34.3506493
  14.1640113  51.6803833  33.0496493  14.6310113  51.7643833  32.3176493
  14.6190113  51.1023833  33.5186493  14.3000113  51.6073833  33.0106493
  14.1500113  45.1493833  38.3506493  13.6880113  44.7573833  37.7236493
  14.8500113  44.6363833  38.4426493  14.1850113  45.0163833  38.2716493
  12.5160113  52.6203833  39.2636493  11.9240113  53.1783833  38.9506493
  12.9420113  52.3513833  38.5516493  12.4920113  52.6623833  39.1126493
  18.9410113  39.8603833  51.1526493  19.0580113  39.4063833  50.4166493
  19.2290113  40.6583833  50.9496493  19.0010113  39.9113833  51.0136493
  14.0610113  51.2903833  37.1946493  14.7170113  50.7153833  37.2096493
  14.4500113  52.0393833  36.9736493  14.2160113  51.3153833  37.1646493
  14.6740113  39.4573833  50.1366493  13.8960113  39.0673833  50.0646493
  15.1650113  39.0453833  49.5456493  14.6310113  39.3383833  50.0386493
  12.0220113  40.0053833  47.7226493  12.0180113  40.5923833  48.3686493
  12.6160113  40.3173833  47.1656493  12.1090113  40.1383833  47.7356493
  12.9590113  39.6003833  36.6376493  12.8450113  38.7363833  36.6686493
  12.4840113  39.8943833  37.3076493  12.8720113  39.5163833  36.7406493
  11.9960113  50.6813833  50.9696493  12.7520113  51.0303833  51.2276493
  12.1730113  49.8283833  50.9126493  12.1340113  50.6063833  50.9996493
  12.3310113  45.5103833  36.0046493  12.1460113  44.6713833  36.1566493
  12.9900113  45.4743833  35.4346493  12.4010113  45.3813833  35.9426493
  12.5030113  49.6743833  35.5796493  13.0550113  50.2433833  35.9436493
  12.2710113  49.1593833  36.2446493  12.5500113  49.6823833  35.7316493
  12.3330113  48.1233833  33.2076493  13.0890113  47.6913833  33.2656493
  12.3480113  48.6553833  33.8986493  12.4470113  48.1383833  33.3186493
  14.3680113  45.6623833  50.1226493  14.3310113  46.1633833  49.4086493
  14.6990113  44.9103833  49.8276493  14.4110113  45.6243833  49.9736493
  12.1400113  36.9383833  36.3416493  12.2690113  36.2303833  35.8496493
  11.7730113  36.6203833  37.0666493  12.1050113  36.7863833  36.3766493
  16.3290113  39.1363833  33.3106493  15.8180113  39.1893833  32.6046493
  17.1130113  39.3763833  33.0146493  16.3690113  39.1793833  33.1626493
  12.6370113  37.4923833  48.6966493  12.4970113  38.2873833  48.3656493
  11.8510113  37.2493833  48.9856493  12.5000113  37.5743833  48.6906493
  14.3070113  53.8393833  48.2086493  13.6530113  53.2703833  48.3066493
  13.9320113  54.6123833  48.3596493  14.1550113  53.8693833  48.2456493
  16.0070113  38.1053833  48.0236493  15.9260113  37.2613833  48.2296493
  15.6930113  38.1493833  47.2106493  15.9490113  37.9873833  47.9336493
  14.3060113  41.8573833  32.4546493  13.6340113  41.8713833  33.0106493
  14.4010113  41.0093833  32.2706493  14.2210113  41.7343833  32.5096493
  15.6760113  52.0063833  49.8576493  16.2710113  52.4373833  50.3296493
  15.3120113  52.6303833  49.3686493  15.7100113  52.1623833  49.8546493
  13.6480113  54.3213833  45.6196493  14.1410113  54.2653833  46.3376493
  13.8360113  53.5883833  45.1846493  13.7490113  54.2043833  45.6616493
  23.0860113  36.8373833  18.7604083  22.8410113  37.3253833  18.0804083
  23.9490113  36.7643833  18.6604083  23.1770113  36.8983833  18.6454083
  12.7640113  47.8933833  18.8874083  12.3230113  48.0113833  19.6304083
  12.4810113  47.1183833  18.6024083  12.6570113  47.7963833  18.9554083
  12.5070113  41.6853833  15.3944083  11.7290113  41.8473833  15.0344083
  12.5460113  40.8143833  15.4164083  12.3980113  41.5803833  15.3444083
  15.6460113  46.9483833  14.0664083  15.2540113  46.5773833  13.3804083
  15.5660113  46.3503833  14.6954083  15.5760113  46.8053833  14.0574083
  25.5660113  44.8203833  20.1074083  25.6460113  44.8243833  19.2384083
  24.9820113  44.1883833  20.2564083  25.4910113  44.7273833  20.0014083
  15.2730113  48.5893833  17.9664083  15.8810113  48.4193833  18.5694083
  14.5220113  48.4493833  18.3874083  15.2520113  48.5433833  18.1174083
  19.5550113  37.9243833  17.9154083  19.4850113  38.6013833  17.3694083
  20.2960113  37.5363833  17.6664083  19.6540113  37.9673833  17.7974083
  14.1640113  51.6803833  14.0434083  14.6310113  51.7643833  13.3114083
  14.6190113  51.1023833  14.5124083  14.3000113  51.6073833  14.0044083
  12.7040113  50.6283833  25.1424083  12.8330113  50.3483833  25.9584083
  12.0940113  50.0873833  24.8334083  12.6330113  50.5073833  25.2174083
  14.1500113  45.1493833  19.3444083  13.6880113  44.7573833  18.7174083
  14.8500113  44.6363833  19.4364083  14.1850113  45.0163833  19.2654083
  18.6580113  40.7593833  24.6914083  19.3360113  40.7773833  24.1424083
  18.6130113  39.9233833  24.9364083  18.7510113  40.6383833  24.6464083
  16.1510113  43.2493833  19.3674083  16.9680113  43.0623833  19.6104083
  15.6740113  42.6353833  19.7634083  16.2010113  43.1313833  19.4624083
  20.3550113  49.2303833  21.9774083  20.7030113  48.4313833  22.0074083
  21.0200113  49.7343833  21.7224083  20.5050113  49.1863833  21.9444083
  20.4120113  48.6793833  18.1884083  20.7430113  48.0353833  18.6744083
  20.6520113  48.4683833  17.3774083  20.4960113  48.5533833  18.1404083
  16.7480113  38.3433833  18.6334083  16.4520113  38.8443833  17.9834083
  17.6150113  38.4213833  18.5764083  16.8320113  38.4293833  18.5294083
  19.7270113  37.4853833  20.8564083  19.8000113  38.3453833  20.9854083
  19.6890113  37.4103833  19.9884083  19.7320113  37.6013833  20.7474083
  24.4000113  40.4113833  13.1554083  23.9500113  41.0923833  13.4624083
  24.5140113  39.9073833  13.8584083  24.3510113  40.4373833  13.3044083
  12.6060113  42.9103833  22.3574083  12.3500113  43.7413833  22.2824083
  11.9420113  42.5273833  22.7744083  12.4700113  42.9763833  22.4084083
  12.5160113  52.6203833  20.2574083  11.9240113  53.1783833  19.9444083
  12.9420113  52.3513833  19.5454083  12.4920113  52.6623833  20.1064083
  18.3560113  50.4643833  17.7374083  17.7770113  50.1893833  18.3294083
  18.9800113  49.8553833  17.7624083  18.3630113  50.3343833  17.8284083
  24.4990113  52.7523833  15.2594083  25.2260113  53.2243833  15.3614083
  24.7280113  51.9583833  15.5394083  24.6410113  52.7053833  15.3164083
  22.6670113  53.1443833  17.2494083  22.8810113  53.6713833  17.9114083
  23.4340113  52.9703833  16.8704083  22.8120113  53.1963833  17.2914083
  15.6350113  37.7273833  22.8484083  15.1140113  37.0993833  22.5404083
  16.2260113  37.2903833  23.3194083  15.6460113  37.5693833  22.8724083
  14.0610113  51.2903833  18.1884083  14.7170113  50.7153833  18.2034083
  14.4500113  52.0393833  17.9674083  14.2160113  51.3153833  18.1584083
  14.6740113  39.4573833  31.1304083  13.8960113  39.0673833  31.0584083
  15.1650113  39.0453833  30.5394083  14.6310113  39.3383833  31.0324083
  14.8790113  49.7773833  21.6884083  15.3020113  49.4213833  21.0144083
  15.2030113  49.3553833  22.3804083  14.9890113  49.6623833  21.6914083
  18.1100113  52.6293833  20.9844083  18.9540113  52.7333833  20.7894083
  17.8130113  53.4473833  21.0524083  18.1910113  52.7653833  20.9654083
  21.9170113  42.0263833  19.0714083  22.2040113  41.7943833  18.2814083
  22.6490113  42.1053833  19.5404083  22.0670113  42.0033833  19.0244083
  22.6390113  42.3653833  14.1924083  22.9200113  43.1533833  14.4414083
  21.8630113  42.5303833  13.8294083  22.5660113  42.5063833  14.1754083
  17.1080113  53.8483833  26.7244083  17.4000113  53.7813833  27.5444083
  16.4820113  53.2433833  26.6794083  17.0590113  53.7493833  26.8394083
  12.0220113  40.0053833  28.7164083  12.0180113  40.5923833  29.3624083
  12.6160113  40.3173833  28.1594083  12.1090113  40.1383833  28.7294083
  21.4980113  50.5363833  14.0084083  21.3170113  51.0813833  14.6654083
  22.2640113  50.8263833  13.7074083  21.5840113  50.6603833  14.0614083
  25.0050113  38.4323833  15.0624083  25.5450113  37.7503833  15.1384083
  25.0670113  38.8303833  15.8364083  25.0940113  38.3903833  15.1884083
  12.9590113  39.6003833  17.6314083  12.8450113  38.7363833  17.6624083
  12.4840113  39.8943833  18.3014083  12.8720113  39.5163833  17.7344083
  15.1010113  52.0103833  25.8464083  14.4030113  51.5023833  25.9724083
  15.3610113  51.8053833  25.0384083  15.0360113  51.9053833  25.7454083
  22.2630113  40.8083833  16.3764083  21.7550113  40.1463833  16.1224083
  22.3150113  41.3123833  15.6664083  22.1960113  40.7853833  16.2344083
  22.2630113  37.7493833  16.2674083  21.8080113  37.3473833  15.6414083
  23.0360113  37.9043833  15.8924083  22.3100113  37.7133833  16.1194083
  20.8610113  40.1163833  20.7894083  20.9350113  40.6843833  20.1314083
  20.9820113  40.6083833  21.4994083  20.8890113  40.2733833  20.7974083
  26.0860113  49.9513833  19.2014083  26.7870113  49.4693833  19.3904083
  25.4260113  49.3823833  19.2464083  26.0920113  49.7963833  19.2354083
  16.4620113  50.8613833  28.4134083  17.3030113  50.9243833  28.1914083
  16.4250113  51.2583833  29.1894083  16.5810113  50.9293833  28.4954083
  15.4690113  35.9393833  19.1374083  16.0050113  36.6273833  19.1274083
  15.4720113  35.6653833  18.3094083  15.5480113  36.0003833  19.0134083
  18.4250113  46.3723833  23.1624083  18.5970113  46.1623833  23.9914083
  17.7700113  45.8383833  22.9464083  18.3540113  46.2623833  23.2534083
  19.1750113  46.3103833  25.7524083  19.2280113  47.1573833  25.9544083
  18.8900113  45.9403833  26.4894083  19.1410113  46.3803833  25.8904083
  25.9090113  36.2303833  19.5134083  25.9580113  35.9123833  20.3244083
  26.2320113  35.5863833  19.0204083  25.9640113  36.0883833  19.5604083
  11.9960113  50.6813833  31.9634083  12.7520113  51.0303833  32.2214083
  12.1730113  49.8283833  31.9064083  12.1340113  50.6063833  31.9934083
  15.9170113  39.7493833  20.7914083  16.1890113  39.3193833  20.0834083
  15.7410113  39.1133833  21.3624083  15.9310113  39.5923833  20.7714083
  15.7410113  47.1763833  20.3404083  16.5920113  47.0963833  20.1674083
  15.3840113  46.4943833  19.9284083  15.8140113  47.0633833  20.2534083
  14.5080113  53.9013833  21.5774083  13.8350113  53.4033833  21.3324083
  14.9110113  54.0863833  20.8264083  14.4680113  53.8553833  21.4304083
  14.0580113  40.8513833  23.8734083  14.9010113  41.0713833  23.8304083
  13.6690113  41.4243833  23.3424083  14.1250113  40.9683833  23.7884083
  26.5000113  43.9813833  14.5944083  26.2800113  44.7123833  14.1724083
  26.0520113  44.0323833  15.3414083  26.4010113  44.0963833  14.6424083
  18.1090113  47.1833833  18.5754083  18.8220113  47.6783833  18.6654083
  18.3310113  46.6163833  17.9494083  18.2470113  47.1723833  18.4964083
  30.6870113  38.8423833  14.0474083  30.0250113  38.2743833  14.0704083
  30.4940113  39.3543833  13.3674083  30.5610113  38.8343833  13.9504083
  12.2650113  48.8263833  21.8954083  11.5980113  49.3143833  22.1714083
  12.9450113  49.3713833  21.9244083  12.2670113  48.9783833  21.9404083
  12.3310113  45.5103833  16.9984083  12.1460113  44.6713833  17.1504083
  12.9900113  45.4743833  16.4284083  12.4010113  45.3813833  16.9364083
  28.6890113  38.4003833  16.3264083  29.4350113  37.9933833  16.5254083
  28.9520113  39.1153833  15.9014083  28.8380113  38.4463833  16.2934083
  22.6320113  50.8863833  20.9024083  22.1090113  51.5203833  20.6094083
  22.9420113  50.5223833  20.1734083  22.6000113  50.9263833  20.7514083
  12.5030113  49.6743833  16.5734083  13.0550113  50.2433833  16.9374083
  12.2710113  49.1593833  17.2384083  12.5500113  49.6823833  16.7254083
  16.7070113  48.6743833  23.6624083  17.1740113  48.9633833  24.3404083
  17.2790113  48.1963833  23.2084083  16.8610113  48.6463833  23.6954083
  25.1430113  40.6883833  21.3994083  25.4870113  40.8403833  22.1864083
  24.6900113  39.9503833  21.5124083  25.1270113  40.6013833  21.5324083
  12.3330113  48.1233833  14.2014083  13.0890113  47.6913833  14.2594083
  12.3480113  48.6553833  14.8924083  12.4470113  48.1383833  14.3124083
  13.2730113  46.3443833  22.2064083  13.7040113  46.2153833  21.4594083
  13.0680113  47.1923833  22.1804083  13.3060113  46.4503833  22.0924083
  19.6190113  39.9083833  15.8564083  19.6170113  39.7913833  14.9914083
  19.4380113  40.7563833  15.9484083  19.5920113  40.0163833  15.7424083
  17.3570113  49.8603833  20.4884083  17.4830113  50.7033833  20.6754083
  18.0250113  49.4613833  20.8844083  17.4750113  49.9263833  20.5744083
  15.4870113  43.3433833  30.3504083  14.9510113  42.8373833  30.8184083
  15.5070113  42.9533833  29.5704083  15.4100113  43.2103833  30.3044083
  15.9720113  42.7403833  15.4904083  15.8440113  42.2923833  16.2284083
  15.3900113  42.3983833  14.9384083  15.8670113  42.6233833  15.5184083
  16.1390113  44.5703833  22.0894083  15.3580113  44.5113833  21.7064083
  16.2110113  43.8183833  22.5264083  16.0340113  44.4513833  22.0974083
  16.5690113  44.3073833  25.5574083  16.5940113  43.6323833  25.0064083
  15.9230113  44.8033833  25.2454083  16.4780113  44.2803833  25.4304083
  24.6570113  39.9893833  17.4644083  25.1470113  40.7063833  17.3874083
  23.8670113  40.2503833  17.2014083  24.6130113  40.1333833  17.4144083
  14.3680113  45.6623833  31.1164083  14.3310113  46.1633833  30.4024083
  14.6990113  44.9103833  30.8214083  14.4110113  45.6243833  30.9674083
  21.2390113  41.4593833  23.1894083  21.7190113  42.1583833  23.3974083
  21.6120113  40.8123833  23.6404083  21.3650113  41.4673833  23.2864083
  23.4280113  44.6283833  15.4634083  23.4200113  45.3503833  14.9734083
  22.7890113  44.7633833  16.0404083  23.3330113  44.7553833  15.4764083
  24.4580113  48.4153833  22.6884083  23.6610113  48.6393833  22.9624083
  24.7160113  47.8213833  23.2734083  24.3780113  48.3603833  22.8154083
  18.3500113  53.2273833  17.1364083  18.2030113  52.4513833  17.5074083
  19.0390113  53.0803833  16.6214083  18.4300113  53.0903833  17.1154083
  18.0210113  36.9703833  15.1244083  18.1180113  36.8633833  15.9854083
  17.3130113  37.4763833  15.0594083  17.9310113  37.0293833  15.2424083
  20.6420113  52.7433833  15.5384083  21.2640113  52.9063833  16.1284083
  20.6780113  53.4343833  15.0064083  20.7390113  52.8693833  15.5474083
  15.1430113  45.2773833  16.3674083  15.4670113  44.4983833  16.1454083
  15.7890113  45.6453833  16.8224083  15.2860113  45.2163833  16.4014083
  12.1400113  36.9383833  17.3354083  12.2690113  36.2303833  16.8434083
  11.7730113  36.6203833  18.0604083  12.1050113  36.7863833  17.3704083
  21.8330113  44.6193833  17.7924083  21.8920113  45.2693833  18.3714083
  21.6440113  43.9233833  18.2834083  21.8140113  44.6123833  17.9504083
  16.3290113  39.1363833  14.3044083  15.8180113  39.1893833  13.5984083
  17.1130113  39.3763833  14.0084083  16.3690113  39.1793833  14.1564083
  21.0560113  46.6663833  22.2234083  20.2090113  46.4723833  22.3044083
  21.3800113  46.5013833  23.0164083  20.9780113  46.6133833  22.3524083
  17.8080113  53.3963833  13.1094083  18.2470113  52.6993833  13.3974083
  18.0150113  54.0203833  13.6824083  17.9040113  53.3853833  13.2364083
  14.9040113  46.3593833  24.5394083  15.6260113  46.8473833  24.5024083
  14.6340113  46.3293833  23.7104083  14.9710113  46.4273833  24.4114083
  18.1340113  41.5303833  21.2744083  18.9800113  41.3403833  21.3724083
  17.7640113  40.7533833  21.1364083  18.2040113  41.3873833  21.2684083
  12.9550113  42.8683833  17.9294083  13.4440113  42.5763833  18.5904083
  13.0840113  42.2753833  17.3024083  13.0460113  42.7373833  17.9344083
  17.4800113  44.3023833  13.4154083  16.8700113  43.8973833  13.8894083
  17.0940113  44.4203833  12.6424083  17.3330113  44.2593833  13.3714083
  14.2990113  47.4113833  28.8174083  13.8780113  46.8933833  28.2564083
  13.9470113  48.1973833  28.6744083  14.1850113  47.4513833  28.7134083
  18.9350113  42.7633833  16.1254083  19.2070113  43.5893833  16.1924083
  18.0720113  42.8383833  16.0294083  18.8480113  42.8963833  16.1204083
  12.4150113  38.7333833  22.6614083  12.4590113  39.0773833  21.8604083
  13.1700113  38.9703833  23.0284083  12.5330113  38.8193833  22.5974083
  27.4640113  42.0313833  20.3874083  26.7190113  41.7083833  20.7054083
  27.4660113  42.8573833  20.6674083  27.3540113  42.1053833  20.4754083
  24.3560113  48.0723833  14.1314083  25.0400113  47.5583833  13.9624083
  23.9390113  48.1183833  13.3664083  24.3950113  48.0033833  13.9934083
  19.0380113  49.2223833  25.4354083  18.7400113  49.8143833  26.0024083
  19.0930113  49.6643833  24.6864083  19.0020113  49.3753833  25.4084083
  20.8180113  53.0383833  20.1544083  21.3640113  53.7173833  20.2084083
  20.4680113  53.1203833  19.3594083  20.8470113  53.1513833  20.0444083
  19.0010113  51.2663833  23.5434083  18.3770113  51.8483833  23.3614083
  19.2490113  50.9803833  22.7574083  18.9450113  51.3103833  23.4004083
  29.0820113  42.5963833  14.3754083  29.4600113  43.2733833  13.9754083
  28.2400113  42.8203833  14.4064083  29.0130113  42.7293833  14.3204083
  20.5950113  46.0423833  13.4584083  19.7900113  45.8653833  13.1734083
  20.5620113  46.8933833  13.6504083  20.4710113  46.1413833  13.4454083
  16.5250113  42.1093833  23.6084083  16.9650113  42.0063833  22.8624083
  17.0700113  41.7963833  24.2134083  16.6700113  42.0483833  23.5874083
  26.7770113  42.1953833  17.7504083  26.9840113  41.9943833  18.5744083
  27.5330113  42.4633833  17.4084083  26.9190113  42.2053833  17.8214083
  20.0720113  37.0943833  23.6554083  19.2460113  36.9453833  23.8924083
  20.0320113  37.1293833  22.7844083  19.9440113  37.0773833  23.5614083
  27.7990113  38.2783833  19.2244083  27.0850113  37.8073833  19.3954083
  27.6370113  38.6193833  18.4384083  27.6700113  38.2593833  19.1334083
  28.2420113  46.2223833  17.6044083  28.7180113  45.4933833  17.5564083
  27.4210113  45.9363833  17.5284083  28.1910113  46.0723833  17.5854083
  12.6370113  37.4923833  29.6904083  12.4970113  38.2873833  29.3594083
  11.8510113  37.2493833  29.9794083  12.5000113  37.5743833  29.6844083
  17.5430113  54.3413833  23.7604083  17.5540113  54.4003833  24.6304083
  17.1180113  53.5943833  23.6104083  17.4820113  54.2393833  23.8664083
  15.7010113  40.2363833  16.9154083  15.8270113  39.9073833  16.1174083
  14.8890113  39.9873833  17.1144083  15.6000113  40.1513833  16.8274083
  24.4580113  47.3893833  19.9594083  24.5340113  47.7303833  20.7584083
  24.6270113  46.5423833  20.0804083  24.4940113  47.3143833  20.0954083
  21.9800113  46.6633833  19.5244083  21.6820113  46.3483833  20.2814083
  22.6750113  47.1363833  19.7594083  22.0390113  46.6863833  19.6714083
  14.3070113  53.8393833  29.2024083  13.6530113  53.2703833  29.3004083
  13.9320113  54.6123833  29.3534083  14.1550113  53.8693833  29.2394083
  15.6780113  42.2473833  27.3314083  16.0530113  42.8663833  26.8444083
  16.3520113  41.7733833  27.6164083  15.8330113  42.2693833  27.3014083
  13.4530113  40.6953833  26.6064083  13.5300113  40.5263833  25.7534083
  14.1990113  41.1013833  26.8034083  13.5740113  40.7303833  26.5094083
  29.0120113  43.3353833  17.0464083  29.1150113  43.2773833  16.1824083
  29.7530113  43.0033833  17.3644083  29.1370113  43.2783833  16.9654083
  16.0070113  38.1053833  29.0174083  15.9260113  37.2613833  29.2234083
  15.6930113  38.1493833  28.2044083  15.9490113  37.9873833  28.9274083
  22.9320113  50.3003833  18.1534083  22.7270113  51.1333833  17.9944083
  22.1570113  49.9183833  18.2754083  22.7870113  50.3673833  18.1484083
  12.8500113  45.9213833  26.8304083  13.1700113  46.1403833  26.0494083
  12.7500113  45.0563833  26.7754083  12.8820113  45.8263833  26.7074083
  14.3060113  41.8573833  13.4484083  13.6340113  41.8713833  14.0044083
  14.4010113  41.0093833  13.2644083  14.2210113  41.7343833  13.5034083
  22.9870113  38.4713833  21.0384083  22.2870113  38.9893833  20.9824083
  23.0250113  38.0913833  20.2544083  22.8890113  38.4923833  20.9144083
  18.2940113  50.5623833  14.5624083  18.7350113  50.6423833  15.3104083
  17.4890113  50.3463833  14.8204083  18.2400113  50.5423833  14.7114083
  17.6130113  45.2133833  28.2154083  17.2170113  45.9873833  28.2904083
  17.2070113  44.8403833  27.5394083  17.4950113  45.2723833  28.1264083
  26.8890113  44.2673833  22.3294083  27.5550113  44.8083833  22.4894083
  26.5440113  44.5783833  21.5904083  26.9360113  44.3933833  22.2444083
  15.6230113  49.6323833  15.1634083  15.3790113  49.3253833  15.9434083
  15.5900113  48.9293833  14.6474083  15.5820113  49.4833833  15.2024083
  18.4420113  47.8773833  13.9064083  17.6240113  47.6093833  14.0464083
  18.4140113  48.7293833  14.0914083  18.3170113  47.9643833  13.9544083
  18.0420113  38.1903833  25.6654083  17.1780113  38.2743833  25.7454083
  18.2620113  37.6763833  26.3344083  17.9470113  38.1273833  25.7764083
  22.1450113  38.9383833  24.0394083  21.4080113  38.4843833  24.1524083
  22.7160113  38.5363833  24.5624083  22.1200113  38.8113833  24.1334083
  20.4440113  36.5193833  13.8704083  20.5220113  36.7663833  13.0374083
  19.7010113  36.8963833  14.1284083  20.3460113  36.6113833  13.7854083
  15.2620113  38.2733833  26.3134083  14.9190113  37.5063833  26.0794083
  14.5670113  38.7973833  26.3774083  15.1090113  38.2373833  26.2884083
  24.3080113  37.1293833  23.2904083  24.9780113  37.6733833  23.4174083
  23.8050113  37.5533833  22.7174083  24.3330113  37.2723833  23.2244083
  23.6670113  42.9373833  20.7834083  24.2180113  42.3303833  21.0834083
  23.2420113  43.2003833  21.4984083  23.6860113  42.8863833  20.9324083
  13.9150113  41.5873833  20.2694083  13.5470113  41.8893833  21.0004083
  14.4490113  40.9583833  20.5534083  13.9390113  41.5393833  20.4194083
  13.6030113  49.9953833  27.7804083  13.0290113  50.4113833  28.2894083
  14.3360113  50.4603833  27.8754083  13.6270113  50.1253833  27.8694083
  25.6370113  44.7683833  17.3454083  25.7050113  43.9183833  17.5264083
  24.8140113  44.8543833  17.0674083  25.5250113  44.6553833  17.3314083
  15.3890113  53.2623833  16.5554083  15.2440113  53.4183833  15.7094083
  16.2550113  53.3413833  16.6334083  15.4960113  53.2973833  16.4424083
  19.5560113  45.6593833  16.2834083  19.6560113  45.7983833  15.4284083
  20.3740113  45.5993833  16.5794083  19.6910113  45.6703833  16.2004083
  24.7910113  49.9883833  16.0854083  24.5400113  49.8603833  16.9114083
  24.4740113  49.2933833  15.6644083  24.7070113  49.8673833  16.1454083
  16.0760113  52.0773833  23.0324083  15.9970113  51.2673833  22.7164083
  15.6320113  52.5643833  22.4604083  15.9990113  52.0293833  22.9014083
  21.6770113  48.1963833  15.5154083  22.3940113  47.8493833  15.1594083
  21.6430113  48.9963833  15.1674083  21.7780113  48.2633833  15.4114083
  13.6480113  54.3213833  26.6134083  14.1410113  54.2653833  27.3314083
  13.8360113  53.5883833  26.1784083  13.7490113  54.2043833  26.6554083
  22.8950113  43.7533833   4.4251673  22.3710113  44.3493833   4.7881673
  23.2920113  43.3853833   5.1091673  22.8760113  43.7873833   4.5801673
  12.7040113  50.6283833   6.1361673  12.8330113  50.3483833   6.9521673
  12.0940113  50.0873833   5.8271673  12.6330113  50.5073833   6.2111673
  19.2780113  48.1533833  11.2031673  19.0420113  48.1503833  12.0431673
  18.5300113  48.0053833  10.7791673  19.1320113  48.1303833  11.2641673
  18.6580113  40.7593833   5.6851673  19.3360113  40.7773833   5.1361673
  18.6130113  39.9233833   5.9301673  18.7510113  40.6383833   5.6401673
  19.2600113  51.3453833   8.4661673  19.3980113  52.1053833   8.0591673
  20.0510113  50.9803833   8.4931673  19.3970113  51.4043833   8.4101673
  20.3550113  49.2303833   2.9711673  20.7030113  48.4313833   3.0011673
  21.0200113  49.7343833   2.7161673  20.5050113  49.1863833   2.9381673
  22.3800113  42.8103833  10.5211673  21.5320113  42.7113833  10.3431673
  22.4090113  43.5553833  10.9751673  22.2590113  42.9063833  10.5621673
  26.9380113  35.7703833   9.6351673  26.7800113  36.5393833   9.2531673
  26.1660113  35.5503833   9.9791673  26.8000113  35.8513833   9.6301673
  12.6060113  42.9103833   3.3511673  12.3500113  43.7413833   3.2761673
  11.9420113  42.5273833   3.7681673  12.4700113  42.9763833   3.4021673
  15.6350113  37.7273833   3.8421673  15.1140113  37.0993833   3.5341673
  16.2260113  37.2903833   4.3131673  15.6460113  37.5693833   3.8661673
  18.9410113  39.8603833  13.1401673  19.0580113  39.4063833  12.4041673
  19.2290113  40.6583833  12.9371673  19.0010113  39.9113833  13.0011673
  25.1060113  53.1543833   6.5481673  25.8500113  53.6103833   6.5381673
  24.9850113  52.9403833   5.7111673  25.1980113  53.1903833   6.4231673
  14.6740113  39.4573833  12.1241673  13.8960113  39.0673833  12.0521673
  15.1650113  39.0453833  11.5331673  14.6310113  39.3383833  12.0261673
  14.8790113  49.7773833   2.6821673  15.3020113  49.4213833   2.0081673
  15.2030113  49.3553833   3.3741673  14.9890113  49.6623833   2.6851673
  18.1100113  52.6293833   1.9781673  18.9540113  52.7333833   1.7831673
  17.8130113  53.4473833   2.0461673  18.1910113  52.7653833   1.9591673
  21.3230113  37.1003833  11.2921673  21.5010113  36.2913833  11.0171673
  21.1800113  37.5413833  10.5531673  21.3280113  37.0463833  11.1421673
  17.1080113  53.8483833   7.7181673  17.4000113  53.7813833   8.5381673
  16.4820113  53.2433833   7.6731673  17.0590113  53.7493833   7.8331673
  29.4690113  38.7073833   5.8131673  30.2260113  38.7793833   5.3851673
  29.5320113  37.9343833   6.2121673  29.5900113  38.6043833   5.8081673
  12.0220113  40.0053833   9.7101673  12.0180113  40.5923833  10.3561673
  12.6160113  40.3173833   9.1531673  12.1090113  40.1383833   9.7231673
  24.3600113  50.3393833  10.2521673  24.3260113  50.7213833  11.0361673
  25.2140113  50.2973833  10.0811673  24.4810113  50.3893833  10.3431673
  15.1010113  52.0103833   6.8401673  14.4030113  51.5023833   6.9661673
  15.3610113  51.8053833   6.0321673  15.0360113  51.9053833   6.7391673
  22.8120113  53.5033833   7.7501673  23.5800113  53.4233833   7.3441673
  22.2290113  53.3823833   7.1121673  22.8390113  53.4733833   7.5961673
  16.4620113  50.8613833   9.4071673  17.3030113  50.9243833   9.1851673
  16.4250113  51.2583833  10.1831673  16.5810113  50.9293833   9.4891673
  18.4250113  46.3723833   4.1561673  18.5970113  46.1623833   4.9851673
  17.7700113  45.8383833   3.9401673  18.3540113  46.2623833   4.2471673
  24.6530113  40.2863833   7.6711673  24.5580113  40.6053833   8.4771673
  24.0600113  39.6473833   7.6331673  24.5510113  40.2383833   7.7851673
  19.1750113  46.3103833   6.7461673  19.2280113  47.1573833   6.9481673
  18.8900113  45.9403833   7.4831673  19.1410113  46.3803833   6.8841673
  25.3520113  47.0053833   5.8761673  24.8380113  46.5933833   6.4471673
  25.2260113  47.8493833   6.0571673  25.2580113  47.0693833   5.9871673
  11.9960113  50.6813833  12.9571673  12.7520113  51.0303833  13.2151673
  12.1730113  49.8283833  12.9001673  12.1340113  50.6063833  12.9871673
  28.3730113  40.4663833   8.8151673  29.1450113  40.2413833   9.1521673
  27.8980113  40.6833833   9.5151673  28.4170113  40.4653833   8.9681673
  14.5080113  53.9013833   2.5711673  13.8350113  53.4033833   2.3261673
  14.9110113  54.0863833   1.8201673  14.4680113  53.8553833   2.4241673
  14.0580113  40.8513833   4.8671673  14.9010113  41.0713833   4.8241673
  13.6690113  41.4243833   4.3361673  14.1250113  40.9683833   4.7821673
  30.8390113  51.9533833  10.2571673  30.1570113  52.2633833   9.8101673
  30.4700113  51.4953833  10.9021673  30.6830113  51.9313833  10.2861673
  12.2650113  48.8263833   2.8891673  11.5980113  49.3143833   3.1651673
  12.9450113  49.3713833   2.9181673  12.2670113  48.9783833   2.9341673
  19.9120113  42.5363833  12.9851673  19.4280113  43.1133833  13.4271673
  19.8840113  42.8313833  12.1641673  19.8360113  42.6653833  12.9291673
  31.0100113  43.2203833   7.5971673  31.2250113  42.4203833   7.3211673
  30.1600113  43.2803833   7.4081673  30.9160113  43.1113833   7.5281673
  16.7070113  48.6743833   4.6561673  17.1740113  48.9633833   5.3341673
  17.2790113  48.1963833   4.2021673  16.8610113  48.6463833   4.6891673
  25.1430113  40.6883833   2.3931673  25.4870113  40.8403833   3.1801673
  24.6900113  39.9503833   2.5061673  25.1270113  40.6013833   2.5261673
  13.2730113  46.3443833   3.2001673  13.7040113  46.2153833   2.4531673
  13.0680113  47.1923833   3.1741673  13.3060113  46.4503833   3.0861673
  28.6730113  52.3353833   8.3471673  28.0020113  52.8493833   8.5651673
  28.7360113  52.4353833   7.4831673  28.5830113  52.4263833   8.2521673
  15.4870113  43.3433833  11.3441673  14.9510113  42.8373833  11.8121673
  15.5070113  42.9533833  10.5641673  15.4100113  43.2103833  11.2981673
  16.1390113  44.5703833   3.0831673  15.3580113  44.5113833   2.7001673
  16.2110113  43.8183833   3.5201673  16.0340113  44.4513833   3.0911673
  16.5690113  44.3073833   6.5511673  16.5940113  43.6323833   6.0001673
  15.9230113  44.8033833   6.2391673  16.4780113  44.2803833   6.4241673
  26.4640113  42.0203833   4.9471673  25.8020113  42.3483833   5.4101673
  26.6510113  42.6543833   4.3781673  26.3940113  42.1623833   4.9311673
  20.6690113  53.0843833   5.9431673  20.3920113  52.4433833   5.4201673
  20.4610113  53.8103833   5.5051673  20.5980113  53.0973833   5.8011673
  23.1090113  37.9263833   8.3761673  23.2580113  37.1013833   8.1331673
  23.4880113  37.9813833   9.1601673  23.1870113  37.8123833   8.4561673
  14.3680113  45.6623833  12.1101673  14.3310113  46.1633833  11.3961673
  14.6990113  44.9103833  11.8151673  14.4110113  45.6243833  11.9611673
  25.9710113  47.8673833  10.3681673  26.4550113  48.5853833  10.4661673
  26.3650113  47.4403833   9.7171673  26.1010113  47.9103833  10.2861673
  20.2670113  50.7123833  11.5451673  20.6210113  50.5343833  12.3221673
  19.8310113  49.9833833  11.3461673  20.2550113  50.5783833  11.6311673
  21.2390113  41.4593833   4.1831673  21.7190113  42.1583833   4.3911673
  21.6120113  40.8123833   4.6341673  21.3650113  41.4673833   4.2801673
  24.4450113  51.5643833   4.2821673  23.8420113  51.2683833   3.7251673
  24.9900113  52.0163833   3.7731673  24.4360113  51.5873833   4.1241673
  24.4580113  48.4153833   3.6821673  23.6610113  48.6393833   3.9561673
  24.7160113  47.8213833   4.2671673  24.3780113  48.3603833   3.8091673
  27.7180113  46.4133833   8.5281673  27.7730113  46.5383833   7.6661673
  28.4710113  46.7333833   8.8301673  27.8370113  46.4783833   8.4451673
  23.9090113  51.7623833  12.8051673  24.0730113  52.0453833  13.6141673
  24.1720113  52.4233833  12.3001673  23.9720113  51.9023833  12.8501673
  28.7500113  36.7113833  11.5151673  28.1130113  36.3113833  11.0731673
  28.7760113  36.2803833  12.2731673  28.6600113  36.5893833  11.5611673
  23.4490113  46.2193833   8.1281673  23.2940113  46.8293833   8.7321673
  23.9830113  45.6613833   8.5341673  23.5050113  46.2273833   8.2771673
  27.0590113  48.9483833   4.6551673  26.5800113  49.2463833   3.9891673
  26.7030113  48.1723833   4.8331673  26.9360113  48.8773833   4.5831673
  21.0560113  46.6663833   3.2171673  20.2090113  46.4723833   3.2981673
  21.3800113  46.5013833   4.0101673  20.9780113  46.6133833   3.3461673
  14.9040113  46.3593833   5.5331673  15.6260113  46.8473833   5.4961673
  14.6340113  46.3293833   4.7041673  14.9710113  46.4273833   5.4051673
  18.1340113  41.5303833   2.2681673  18.9800113  41.3403833   2.3661673
  17.7640113  40.7533833   2.1301673  18.2040113  41.3873833   2.2621673
  27.9900113  45.8903833   5.7741673  27.9830113  45.1143833   6.1721673
  27.1490113  46.1243833   5.7671673  27.8650113  45.8103833   5.8321673
  14.2990113  47.4113833   9.8111673  13.8780113  46.8933833   9.2501673
  13.9470113  48.1973833   9.6681673  14.1850113  47.4513833   9.7071673
  29.2460113  45.9613833   3.2111673  28.9600113  46.3623833   3.9311673
  30.1060113  45.8993833   3.3381673  29.3310113  46.0113833   3.3361673
  26.9080113  39.8853833  11.7511673  26.3830113  40.3443833  12.2751673
  26.5470113  39.0903833  11.7451673  26.7770113  39.8353833  11.8271673
  12.4150113  38.7333833   3.6551673  12.4590113  39.0773833   2.8541673
  13.1700113  38.9703833   4.0221673  12.5330113  38.8193833   3.5911673
  30.3770113  51.5943833   3.7401673  30.6670113  51.8513833   2.9591673
  31.0720113  51.6903833   4.2591673  30.5230113  51.6463833   3.7011673
  25.4000113  43.4543833  11.8271673  25.4730113  43.5583833  12.6901673
  24.7660113  44.0123833  11.6061673  25.3170113  43.5523833  11.9221673
  27.6680113  43.7733833  10.1921673  27.9870113  44.5593833  10.3951673
  27.2980113  43.5033833  10.9351673  27.6610113  43.8493833  10.3321673
  30.3660113  44.3153833  12.9271673  30.3140113  43.9743833  12.1261673
  31.1030113  44.7823833  12.9051673  30.4670113  44.3343833  12.8051673
  29.9040113  47.9913833   9.1331673  30.5320113  47.4423833   8.8771673
  29.8430113  48.5563833   8.4711673  29.9880113  47.9943833   8.9971673
  19.0380113  49.2223833   6.4291673  18.7400113  49.8143833   6.9961673
  19.0930113  49.6643833   5.6801673  19.0020113  49.3753833   6.4021673
  17.0170113  48.1723833   9.8271673  16.2110113  47.8823833   9.9941673
  16.9280113  49.0403833   9.8331673  16.8850113  48.2573833   9.8521673
  26.3760113  38.3613833   8.8421673  27.1200113  38.8133833   8.7791673
  25.8100113  38.8313833   8.3731673  26.4030113  38.4983833   8.7641673
  21.5540113  45.6453833   5.9201673  22.0300113  46.0193833   6.5481673
  20.7310113  45.7793833   6.1791673  21.5030113  45.7203833   6.0511673
  18.2640113  41.2483833   8.6611673  18.4250113  40.5043833   9.0881673
  18.2190113  40.9993833   7.8261673  18.2810113  41.1013833   8.6011673
  27.6610113  36.3413833   6.5121673  27.3810113  37.1663833   6.4681673
  28.3770113  36.3943833   7.0081673  27.7260113  36.4713833   6.5791673
  20.0160113  37.0563833   8.5411673  20.7210113  37.3763833   8.1391673
  20.2570113  36.2493833   8.7681673  20.1550113  36.9843833   8.5151673
  19.0010113  51.2663833   4.5371673  18.3770113  51.8483833   4.3551673
  19.2490113  50.9803833   3.7511673  18.9450113  51.3103833   4.3941673
  23.3100113  47.9003833  11.5261673  24.0670113  48.1863833  11.2001673
  22.7630113  47.9523833  10.8481673  23.3410113  47.9503833  11.3771673
  27.2190113  50.4503833  10.0301673  27.5650113  50.7203833  10.7841673
  27.5130113  51.0323833   9.4501673  27.3140113  50.5763833  10.0561673
  16.5250113  42.1093833   4.6021673  16.9650113  42.0063833   3.8561673
  17.0700113  41.7963833   5.2071673  16.6700113  42.0483833   4.5811673
  24.5410113  41.2113833  10.1941673  23.8930113  41.6813833  10.5421673
  25.1060113  41.1223833  10.8531673  24.5290113  41.2673833  10.3431673
  24.2290113  42.7483833   6.4921673  24.5310113  43.1683833   7.1951673
  24.2650113  41.9083833   6.7241673  24.2790113  42.6863833   6.6301673
  21.6540113  52.9153833  10.4171673  22.1320113  52.3153833  10.0011673
  21.3030113  52.4723833  11.0821673  21.6730113  52.7613833  10.4541673
  20.0720113  37.0943833   4.6491673  19.2460113  36.9453833   4.8861673
  20.0320113  37.1293833   3.7781673  19.9440113  37.0773833   4.5551673
  21.7130113  48.1343833   9.4371673  20.9180113  48.0703833   9.7881673
  21.7840113  48.9813833   9.2421673  21.6060113  48.2493833   9.4601673
  12.6370113  37.4923833  10.6841673  12.4970113  38.2873833  10.3531673
  11.8510113  37.2493833  10.9731673  12.5000113  37.5743833  10.6781673
  17.5430113  54.3413833   4.7541673  17.5540113  54.4003833   5.6241673
  17.1180113  53.5943833   4.6041673  17.4820113  54.2393833   4.8601673
  22.2020113  50.7813833   8.5451673  22.8890113  50.6673833   9.0701673
  22.3360113  51.5723833   8.2011673  22.3230113  50.8813833   8.5721673
  30.3780113  43.3903833  10.3561673  29.5230113  43.2683833  10.4821673
  30.5310113  42.9953833   9.5931673  30.2740113  43.3133833  10.2621673
  24.8910113  44.0553833   8.9321673  24.6360113  43.3363833   9.3541673
  25.7120113  44.1713833   9.2021673  24.9750113  43.9663833   9.0341673
  14.3070113  53.8393833  10.1961673  13.6530113  53.2703833  10.2941673
  13.9320113  54.6123833  10.3471673  14.1550113  53.8693833  10.2331673
  22.8250113  45.2453833  12.1191673  23.1480113  45.9313833  11.6871673
  22.1210113  45.5683833  12.5211673  22.7680113  45.3943833  12.1141673
  25.9090113  53.6193833   3.0481673  25.4580113  54.2623833   3.4271673
  26.6170113  53.5403833   3.5531673  25.9470113  53.7023833   3.1791673
  22.6100113  48.7093833   5.9781673  21.9160113  49.1113833   6.3211673
  23.2870113  49.1423833   6.3171673  22.6070113  48.8323833   6.0791673
  15.6780113  42.2473833   8.3251673  16.0530113  42.8663833   7.8381673
  16.3520113  41.7733833   8.6101673  15.8330113  42.2693833   8.2951673
  13.4530113  40.6953833   7.6001673  13.5300113  40.5263833   6.7471673
  14.1990113  41.1013833   7.7971673  13.5740113  40.7303833   7.5031673
  16.0070113  38.1053833  10.0111673  15.9260113  37.2613833  10.2171673
  15.6930113  38.1493833   9.1981673  15.9490113  37.9873833   9.9211673
  28.1140113  43.4813833   7.3961673  28.1120113  42.6183833   7.5201673
  28.1810113  43.8053833   8.2031673  28.1240113  43.4013833   7.5331673
  12.8500113  45.9213833   7.8241673  13.1700113  46.1403833   7.0431673
  12.7500113  45.0563833   7.7691673  12.8820113  45.8263833   7.7011673
  23.9930113  38.2813833  11.1781673  24.0850113  38.9933833  11.6721673
  23.3560113  37.8363833  11.5751673  23.9120113  38.3203833  11.3101673
  26.5850113  38.9873833   4.8321673  27.4400113  39.0863833   4.9771673
  26.2160113  39.5403833   5.3971673  26.6570113  39.0843833   4.9371673
  17.6130113  45.2133833   9.2091673  17.2170113  45.9873833   9.2841673
  17.2070113  44.8403833   8.5331673  17.4950113  45.2723833   9.1201673
  26.8890113  44.2673833   3.3231673  27.5550113  44.8083833   3.4831673
  26.5440113  44.5783833   2.5841673  26.9360113  44.3933833   3.2381673
  18.0420113  38.1903833   6.6591673  17.1780113  38.2743833   6.7391673
  18.2620113  37.6763833   7.3281673  17.9470113  38.1273833   6.7701673
  30.0600113  36.8253833   7.9881673  30.0080113  36.7813833   8.8581673
  30.7470113  36.3223833   7.7981673  30.1540113  36.7453833   8.0881673
  22.1450113  38.9383833   5.0331673  21.4080113  38.4843833   5.1461673
  22.7160113  38.5363833   5.5561673  22.1200113  38.8113833   5.1271673
  24.8770113  49.7863833   6.8211673  25.0830113  50.0873833   7.6131673
  24.8160113  50.5083833   6.3361673  24.8980113  49.9373833   6.8661673
  24.4110113  54.0003833  11.0671673  23.6580113  53.9823833  10.6261673
  24.5790113  54.8523833  11.1511673  24.3250113  54.1233833  11.0141673
  19.6480113  43.2673833  10.2371673  19.3260113  42.6913833   9.6671673
  19.2890113  44.0223833   9.9911673  19.5480113  43.2933833  10.1171673
  29.6890113  48.4253833   6.2791673  29.6570113  47.5633833   6.1441673
  28.9960113  48.7273833   5.8451673  29.5820113  48.3423833   6.1951673
  18.0830113  53.6233833  10.4851673  18.1240113  53.7493833  11.3481673
  18.7340113  53.0633833  10.3291673  18.1850113  53.5593833  10.5901673
  27.7940113  51.6853833   5.0761673  28.3210113  51.6023833   4.3851673
  27.4030113  50.9073833   5.1301673  27.8140113  51.5583833   4.9821673
  15.2620113  38.2733833   7.3071673  14.9190113  37.5063833   7.0731673
  14.5670113  38.7973833   7.3711673  15.1090113  38.2373833   7.2821673
  24.3080113  37.1293833   4.2841673  24.9780113  37.6733833   4.4111673
  23.8050113  37.5533833   3.7111673  24.3330113  37.2723833   4.2181673
  15.6760113  52.0063833  11.8451673  16.2710113  52.4373833  12.3171673
  15.3120113  52.6303833  11.3561673  15.7100113  52.1623833  11.8421673
  23.6670113  42.9373833   1.7771673  24.2180113  42.3303833   2.0771673
  23.2420113  43.2003833   2.4921673  23.6860113  42.8863833   1.9261673
  13.6030113  49.9953833   8.7741673  13.0290113  50.4113833   9.2831673
  14.3360113  50.4603833   8.8691673  13.6270113  50.1253833   8.8631673
  28.9110113  46.1413833  11.4901673  29.5450113  45.9713833  12.0641673
  29.3280113  46.5443833  10.8381673  29.0660113  46.1763833  11.4791673
  29.5360113  40.7053833  12.2281673  29.3400113  41.3493833  12.7831673
  28.8140113  40.2153833  12.2201673  29.4010113  40.7283833  12.3091673
  29.4350113  41.6463833   5.1991673  28.6020113  41.8963833   5.1271673
  29.3790113  40.8063833   5.4281673  29.3040113  41.5593833   5.2221673
  18.6950113  38.6343833  10.3931673  18.9290113  38.0583833   9.7801673
  17.8530113  38.4533833  10.5341673  18.6050113  38.5223833  10.3231673
  26.3220113  46.2523833  12.8451673  27.1930113  46.2163833  12.8091673
  26.1030113  46.6723833  12.1131673  26.4190113  46.3083833  12.7321673
  16.0760113  52.0773833   4.0261673  15.9970113  51.2673833   3.7101673
  15.6320113  52.5643833   3.4541673  15.9990113  52.0293833   3.8951673
  13.6480113  54.3213833   7.6071673  14.1410113  54.2653833   8.3251673
  13.8360113  53.5883833   7.1721673  13.7490113  54.2043833   7.6491673
  23.0860113  18.3592753  75.7791313  22.8410113  18.8472753  75.0991313
  23.9490113  18.2862753  75.6791313  23.1770113  18.4202753  75.6641313
  22.8950113  25.2752753  80.4501313  22.3710113  25.8712753  80.8131313
  23.2920113  24.9072753  81.1341313  22.8760113  25.3092753  80.6051313
  12.7640113  29.4152753  75.9061313  12.3230113  29.5332753  76.6491313
  12.4810113  28.6402753  75.6211313  12.6570113  29.3182753  75.9741313
  29.0390113  32.7162753  73.4211313  29.7400113  32.1972753  73.4171313
  28.4520113  32.2712753  72.9521313  29.0560113  32.5732753  73.3511313
  12.5070113  23.2072753  72.4131313  11.7290113  23.3692753  72.0531313
  12.5460113  22.3362753  72.4351313  12.3980113  23.1022753  72.3631313
  15.6460113  28.4702753  71.0851313  15.2540113  28.0992753  70.3991313
  15.5660113  27.8722753  71.7141313  15.5760113  28.3272753  71.0761313
  25.5660113  26.3422753  77.1261313  25.6460113  26.3462753  76.2571313
  24.9820113  25.7102753  77.2751313  25.4910113  26.2492753  77.0201313
  15.2730113  30.1112753  74.9851313  15.8810113  29.9412753  75.5881313
  14.5220113  29.9712753  75.4061313  15.2520113  30.0652753  75.1361313
  19.5550113  19.4462753  74.9341313  19.4850113  20.1232753  74.3881313
  20.2960113  19.0582753  74.6851313  19.6540113  19.4892753  74.8161313
  14.1640113  33.2022753  71.0621313  14.6310113  33.2862753  70.3301313
  14.6190113  32.6242753  71.5311313  14.3000113  33.1292753  71.0231313
  14.1500113  26.6712753  76.3631313  13.6880113  26.2792753  75.7361313
  14.8500113  26.1582753  76.4551313  14.1850113  26.5382753  76.2841313
  16.1510113  24.7712753  76.3861313  16.9680113  24.5842753  76.6291313
  15.6740113  24.1572753  76.7821313  16.2010113  24.6532753  76.4811313
  20.3550113  30.7522753  78.9961313  20.7030113  29.9532753  79.0261313
  21.0200113  31.2562753  78.7411313  20.5050113  30.7082753  78.9631313
  20.4120113  30.2012753  75.2071313  20.7430113  29.5572753  75.6931313
  20.6520113  29.9902753  74.3961313  20.4960113  30.0752753  75.1591313
  16.7480113  19.8652753  75.6521313  16.4520113  20.3662753  75.0021313
  17.6150113  19.9432753  75.5951313  16.8320113  19.9512753  75.5481313
  19.7270113  19.0072753  77.8751313  19.8000113  19.8672753  78.0041313
  19.6890113  18.9322753  77.0071313  19.7320113  19.1232753  77.7661313
  24.4000113  21.9332753  70.1741313  23.9500113  22.6142753  70.4811313
  24.5140113  21.4292753  70.8771313  24.3510113  21.9592753  70.3231313
  12.6060113  24.4322753  79.3761313  12.3500113  25.2632753  79.3011313
  11.9420113  24.0492753  79.7931313  12.4700113  24.4982753  79.4271313
  12.5160113  34.1422753  77.2761313  11.9240113  34.7002753  76.9631313
  12.9420113  33.8732753  76.5641313  12.4920113  34.1842753  77.1251313
  18.3560113  31.9862753  74.7561313  17.7770113  31.7112753  75.3481313
  18.9800113  31.3772753  74.7811313  18.3630113  31.8562753  74.8471313
  24.4990113  34.2742753  72.2781313  25.2260113  34.7462753  72.3801313
  24.7280113  33.4802753  72.5581313  24.6410113  34.2272753  72.3351313
  22.6670113  34.6662753  74.2681313  22.8810113  35.1932753  74.9301313
  23.4340113  34.4922753  73.8891313  22.8120113  34.7182753  74.3101313
  15.6350113  19.2492753  79.8671313  15.1140113  18.6212753  79.5591313
  16.2260113  18.8122753  80.3381313  15.6460113  19.0912753  79.8911313
  14.0610113  32.8122753  75.2071313  14.7170113  32.2372753  75.2221313
  14.4500113  33.5612753  74.9861313  14.2160113  32.8372753  75.1771313
  29.7940113  21.9062753  76.4691313  29.4480113  22.5842753  76.8951313
  29.1580113  21.3082753  76.4851313  29.6490113  21.9182753  76.5341313
  14.8790113  31.2992753  78.7071313  15.3020113  30.9432753  78.0331313
  15.2030113  30.8772753  79.3991313  14.9890113  31.1842753  78.7101313
  18.1100113  34.1512753  78.0031313  18.9540113  34.2552753  77.8081313
  17.8130113  34.9692753  78.0711313  18.1910113  34.2872753  77.9841313
  21.9170113  23.5482753  76.0901313  22.2040113  23.3162753  75.3001313
  22.6490113  23.6272753  76.5591313  22.0670113  23.5252753  76.0431313
  22.6390113  23.8872753  71.2111313  22.9200113  24.6752753  71.4601313
  21.8630113  24.0522753  70.8481313  22.5660113  24.0282753  71.1941313
  26.6800113  35.8612753  72.6781313  27.3450113  35.7132753  72.1331313
  27.0400113  35.7782753  73.4681313  26.8320113  35.8272753  72.7141313
  21.4980113  32.0582753  71.0271313  21.3170113  32.6032753  71.6841313
  22.2640113  32.3482753  70.7261313  21.5840113  32.1822753  71.0801313
  25.0050113  19.9542753  72.0811313  25.5450113  19.2722753  72.1571313
  25.0670113  20.3522753  72.8551313  25.0940113  19.9122753  72.2071313
  12.9590113  21.1222753  74.6501313  12.8450113  20.2582753  74.6811313
  12.4840113  21.4162753  75.3201313  12.8720113  21.0382753  74.7531313
  22.2630113  22.3302753  73.3951313  21.7550113  21.6682753  73.1411313
  22.3150113  22.8342753  72.6851313  22.1960113  22.3072753  73.2531313
  22.2630113  19.2712753  73.2861313  21.8080113  18.8692753  72.6601313
  23.0360113  19.4262753  72.9111313  22.3100113  19.2352753  73.1381313
  29.0890113  35.6282753  76.6761313  28.6340113  36.3452753  76.8771313
  28.4750113  35.0572753  76.4341313  28.9310113  35.6502753  76.6701313
  20.8610113  21.6382753  77.8081313  20.9350113  22.2062753  77.1501313
  20.9820113  22.1302753  78.5181313  20.8890113  21.7952753  77.8161313
  26.0860113  31.4732753  76.2201313  26.7870113  30.9912753  76.4091313
  25.4260113  30.9042753  76.2651313  26.0920113  31.3182753  76.2541313
  15.4690113  17.4612753  76.1561313  16.0050113  18.1492753  76.1461313
  15.4720113  17.1872753  75.3281313  15.5480113  17.5222753  76.0321313
  18.4250113  27.8942753  80.1811313  18.5970113  27.6842753  81.0101313
  17.7700113  27.3602753  79.9651313  18.3540113  27.7842753  80.2721313
  25.9090113  17.7522753  76.5321313  25.9580113  17.4342753  77.3431313
  26.2320113  17.1082753  76.0391313  25.9640113  17.6102753  76.5791313
  15.9170113  21.2712753  77.8101313  16.1890113  20.8412753  77.1021313
  15.7410113  20.6352753  78.3811313  15.9310113  21.1142753  77.7901313
  28.6050113  28.9662753  72.0281313  28.7240113  28.6792753  72.8431313
  29.4120113  28.9872753  71.6981313  28.7410113  28.9272753  72.1001313
  15.7410113  28.6982753  77.3591313  16.5920113  28.6182753  77.1861313
  15.3840113  28.0162753  76.9471313  15.8140113  28.5852753  77.2721313
  14.5080113  35.4232753  78.5961313  13.8350113  34.9252753  78.3511313
  14.9110113  35.6082753  77.8451313  14.4680113  35.3772753  78.4491313
  14.0580113  22.3732753  80.8921313  14.9010113  22.5932753  80.8491313
  13.6690113  22.9462753  80.3611313  14.1250113  22.4902753  80.8071313
  26.5000113  25.5032753  71.6131313  26.2800113  26.2342753  71.1911313
  26.0520113  25.5542753  72.3601313  26.4010113  25.6182753  71.6611313
  18.1090113  28.7052753  75.5941313  18.8220113  29.2002753  75.6841313
  18.3310113  28.1382753  74.9681313  18.2470113  28.6942753  75.5151313
  30.6870113  20.3642753  71.0661313  30.0250113  19.7962753  71.0891313
  30.4940113  20.8762753  70.3861313  30.5610113  20.3562753  70.9691313
  12.2650113  30.3482753  78.9141313  11.5980113  30.8362753  79.1901313
  12.9450113  30.8932753  78.9431313  12.2670113  30.5002753  78.9591313
  12.3310113  27.0322753  74.0171313  12.1460113  26.1932753  74.1691313
  12.9900113  26.9962753  73.4471313  12.4010113  26.9032753  73.9551313
  28.6890113  19.9222753  73.3451313  29.4350113  19.5152753  73.5441313
  28.9520113  20.6372753  72.9201313  28.8380113  19.9682753  73.3121313
  22.6320113  32.4082753  77.9211313  22.1090113  33.0422753  77.6281313
  22.9420113  32.0442753  77.1921313  22.6000113  32.4482753  77.7701313
  12.5030113  31.1962753  73.5921313  13.0550113  31.7652753  73.9561313
  12.2710113  30.6812753  74.2571313  12.5500113  31.2042753  73.7441313
  16.7070113  30.1962753  80.6811313  17.1740113  30.4852753  81.3591313
  17.2790113  29.7182753  80.2271313  16.8610113  30.1682753  80.7141313
  25.1430113  22.2102753  78.4181313  25.4870113  22.3622753  79.2051313
  24.6900113  21.4722753  78.5311313  25.1270113  22.1232753  78.5511313
  12.3330113  29.6452753  71.2201313  13.0890113  29.2132753  71.2781313
  12.3480113  30.1772753  71.9111313  12.4470113  29.6602753  71.3311313
  13.2730113  27.8662753  79.2251313  13.7040113  27.7372753  78.4781313
  13.0680113  28.7142753  79.1991313  13.3060113  27.9722753  79.1111313
  19.6190113  21.4302753  72.8751313  19.6170113  21.3132753  72.0101313
  19.4380113  22.2782753  72.9671313  19.5920113  21.5382753  72.7611313
  17.3570113  31.3822753  77.5071313  17.4830113  32.2252753  77.6941313
  18.0250113  30.9832753  77.9031313  17.4750113  31.4482753  77.5931313
  15.9720113  24.2622753  72.5091313  15.8440113  23.8142753  73.2471313
  15.3900113  23.9202753  71.9571313  15.8670113  24.1452753  72.5371313
  16.1390113  26.0922753  79.1081313  15.3580113  26.0332753  78.7251313
  16.2110113  25.3402753  79.5451313  16.0340113  25.9732753  79.1161313
  26.4640113  23.5422753  80.9721313  25.8020113  23.8702753  81.4351313
  26.6510113  24.1762753  80.4031313  26.3940113  23.6842753  80.9561313
  24.6570113  21.5112753  74.4831313  25.1470113  22.2282753  74.4061313
  23.8670113  21.7722753  74.2201313  24.6130113  21.6552753  74.4331313
  21.2390113  22.9812753  80.2081313  21.7190113  23.6802753  80.4161313
  21.6120113  22.3342753  80.6591313  21.3650113  22.9892753  80.3051313
  23.4280113  26.1502753  72.4821313  23.4200113  26.8722753  71.9921313
  22.7890113  26.2852753  73.0591313  23.3330113  26.2772753  72.4951313
  28.4000113  30.0202753  76.4631313  28.7560113  29.6702753  77.1781313
  28.3920113  29.3592753  75.8931313  28.4520113  29.8702753  76.4841313
  24.4450113  33.0862753  80.3071313  23.8420113  32.7902753  79.7501313
  24.9900113  33.5382753  79.7981313  24.4360113  33.1092753  80.1491313
  24.4580113  29.9372753  79.7071313  23.6610113  30.1612753  79.9811313
  24.7160113  29.3432753  80.2921313  24.3780113  29.8822753  79.8341313
  18.3500113  34.7492753  74.1551313  18.2030113  33.9732753  74.5261313
  19.0390113  34.6022753  73.6401313  18.4300113  34.6122753  74.1341313
  18.0210113  18.4922753  72.1431313  18.1180113  18.3852753  73.0041313
  17.3130113  18.9982753  72.0781313  17.9310113  18.5512753  72.2611313
  20.6420113  34.2652753  72.5571313  21.2640113  34.4282753  73.1471313
  20.6780113  34.9562753  72.0251313  20.7390113  34.3912753  72.5661313
  15.1430113  26.7992753  73.3861313  15.4670113  26.0202753  73.1641313
  15.7890113  27.1672753  73.8411313  15.2860113  26.7382753  73.4201313
  12.1400113  18.4602753  74.3541313  12.2690113  17.7522753  73.8621313
  11.7730113  18.1422753  75.0791313  12.1050113  18.3082753  74.3891313
  21.8330113  26.1412753  74.8111313  21.8920113  26.7912753  75.3901313
  21.6440113  25.4452753  75.3021313  21.8140113  26.1342753  74.9691313
  27.0590113  30.4702753  80.6801313  26.5800113  30.7682753  80.0141313
  26.7030113  29.6942753  80.8581313  26.9360113  30.3992753  80.6081313
  16.3290113  20.6582753  71.3231313  15.8180113  20.7112753  70.6171313
  17.1130113  20.8982753  71.0271313  16.3690113  20.7012753  71.1751313
  21.0560113  28.1882753  79.2421313  20.2090113  27.9942753  79.3231313
  21.3800113  28.0232753  80.0351313  20.9780113  28.1352753  79.3711313
  17.8080113  34.9182753  70.1281313  18.2470113  34.2212753  70.4161313
  18.0150113  35.5422753  70.7011313  17.9040113  34.9072753  70.2551313
  14.9040113  27.8812753  81.5581313  15.6260113  28.3692753  81.5211313
  14.6340113  27.8512753  80.7291313  14.9710113  27.9492753  81.4301313
  18.1340113  23.0522753  78.2931313  18.9800113  22.8622753  78.3911313
  17.7640113  22.2752753  78.1551313  18.2040113  22.9092753  78.2871313
  30.7510113  34.6362753  72.6201313  31.4450113  34.1692753  72.3721313
  30.2120113  34.0382753  72.9571313  30.7740113  34.4782753  72.6331313
  12.9550113  24.3902753  74.9481313  13.4440113  24.0982753  75.6091313
  13.0840113  23.7972753  74.3211313  13.0460113  24.2592753  74.9531313
  17.4800113  25.8242753  70.4341313  16.8700113  25.4192753  70.9081313
  17.0940113  25.9422753  69.6611313  17.3330113  25.7812753  70.3901313
  29.2460113  27.4832753  79.2361313  28.9600113  27.8842753  79.9561313
  30.1060113  27.4212753  79.3631313  29.3310113  27.5332753  79.3611313
  18.9350113  24.2852753  73.1441313  19.2070113  25.1112753  73.2111313
  18.0720113  24.3602753  73.0481313  18.8480113  24.4182753  73.1391313
  12.4150113  20.2552753  79.6801313  12.4590113  20.5992753  78.8791313
  13.1700113  20.4922753  80.0471313  12.5330113  20.3412753  79.6161313
  30.3770113  33.1162753  79.7651313  30.6670113  33.3732753  78.9841313
  31.0720113  33.2122753  80.2841313  30.5230113  33.1682753  79.7261313
  26.9820113  31.7192753  71.7471313  27.3160113  30.9132753  71.7821313
  26.2270113  31.6472753  72.1771313  26.9200113  31.5892753  71.8161313
  27.4640113  23.5532753  77.4061313  26.7190113  23.2302753  77.7241313
  27.4660113  24.3792753  77.6861313  27.3540113  23.6272753  77.4941313
  24.3560113  29.5942753  71.1501313  25.0400113  29.0802753  70.9811313
  23.9390113  29.6402753  70.3851313  24.3950113  29.5252753  71.0121313
  20.8180113  34.5602753  77.1731313  21.3640113  35.2392753  77.2271313
  20.4680113  34.6422753  76.3781313  20.8470113  34.6732753  77.0631313
  19.0010113  32.7882753  80.5621313  18.3770113  33.3702753  80.3801313
  19.2490113  32.5022753  79.7761313  18.9450113  32.8322753  80.4191313
  29.0820113  24.1182753  71.3941313  29.4600113  24.7952753  70.9941313
  28.2400113  24.3422753  71.4251313  29.0130113  24.2512753  71.3391313
  20.5950113  27.5642753  70.4771313  19.7900113  27.3872753  70.1921313
  20.5620113  28.4152753  70.6691313  20.4710113  27.6632753  70.4641313
  16.5250113  23.6312753  80.6271313  16.9650113  23.5282753  79.8811313
  17.0700113  23.3182753  81.2321313  16.6700113  23.5702753  80.6061313
  26.7770113  23.7172753  74.7691313  26.9840113  23.5162753  75.5931313
  27.5330113  23.9852753  74.4271313  26.9190113  23.7272753  74.8401313
  20.0720113  18.6162753  80.6741313  19.2460113  18.4672753  80.9111313
  20.0320113  18.6512753  79.8031313  19.9440113  18.5992753  80.5801313
  27.7990113  19.8002753  76.2431313  27.0850113  19.3292753  76.4141313
  27.6370113  20.1412753  75.4571313  27.6700113  19.7812753  76.1521313
  28.2420113  27.7442753  74.6231313  28.7180113  27.0152753  74.5751313
  27.4210113  27.4582753  74.5471313  28.1910113  27.5942753  74.6041313
  15.7010113  21.7582753  73.9341313  15.8270113  21.4292753  73.1361313
  14.8890113  21.5092753  74.1331313  15.6000113  21.6732753  73.8461313
  24.4580113  28.9112753  76.9781313  24.5340113  29.2522753  77.7771313
  24.6270113  28.0642753  77.0991313  24.4940113  28.8362753  77.1141313
  21.9800113  28.1852753  76.5431313  21.6820113  27.8702753  77.3001313
  22.6750113  28.6582753  76.7781313  22.0390113  28.2082753  76.6901313
  25.9090113  35.1412753  79.0731313  25.4580113  35.7842753  79.4521313
  26.6170113  35.0622753  79.5781313  25.9470113  35.2242753  79.2041313
  29.0120113  24.8572753  74.0651313  29.1150113  24.7992753  73.2011313
  29.7530113  24.5252753  74.3831313  29.1370113  24.8002753  73.9841313
  22.9320113  31.8222753  75.1721313  22.7270113  32.6552753  75.0131313
  22.1570113  31.4402753  75.2941313  22.7870113  31.8892753  75.1671313
  14.3060113  23.3792753  70.4671313  13.6340113  23.3932753  71.0231313
  14.4010113  22.5312753  70.2831313  14.2210113  23.2562753  70.5221313
  22.9870113  19.9932753  78.0571313  22.2870113  20.5112753  78.0011313
  23.0250113  19.6132753  77.2731313  22.8890113  20.0142753  77.9331313
  18.2940113  32.0842753  71.5811313  18.7350113  32.1642753  72.3291313
  17.4890113  31.8682753  71.8391313  18.2400113  32.0642753  71.7301313
  26.5850113  20.5092753  80.8571313  27.4400113  20.6082753  81.0021313
  26.2160113  21.0622753  81.4221313  26.6570113  20.6062753  80.9621313
  26.8890113  25.7892753  79.3481313  27.5550113  26.3302753  79.5081313
  26.5440113  26.1002753  78.6091313  26.9360113  25.9152753  79.2631313
  27.2020113  33.8552753  75.1551313  27.0280113  33.2012753  75.7051313
  27.9150113  33.5842753  74.7321313  27.2820113  33.7182753  75.1741313
  15.6230113  31.1542753  72.1821313  15.3790113  30.8472753  72.9621313
  15.5900113  30.4512753  71.6661313  15.5820113  31.0052753  72.2211313
  18.4420113  29.3992753  70.9251313  17.6240113  29.1312753  71.0651313
  18.4140113  30.2512753  71.1101313  18.3170113  29.4862753  70.9731313
  22.1450113  20.4602753  81.0581313  21.4080113  20.0062753  81.1711313
  22.7160113  20.0582753  81.5811313  22.1200113  20.3332753  81.1521313
  20.4440113  18.0412753  70.8891313  20.5220113  18.2882753  70.0561313
  19.7010113  18.4182753  71.1471313  20.3460113  18.1332753  70.8041313
  27.7940113  33.2072753  81.1011313  28.3210113  33.1242753  80.4101313
  27.4030113  32.4292753  81.1551313  27.8140113  33.0802753  81.0071313
  24.3080113  18.6512753  80.3091313  24.9780113  19.1952753  80.4361313
  23.8050113  19.0752753  79.7361313  24.3330113  18.7942753  80.2431313
  23.6670113  24.4592753  77.8021313  24.2180113  23.8522753  78.1021313
  23.2420113  24.7222753  78.5171313  23.6860113  24.4082753  77.9511313
  13.9150113  23.1092753  77.2881313  13.5470113  23.4112753  78.0191313
  14.4490113  22.4802753  77.5721313  13.9390113  23.0612753  77.4381313
  25.6370113  26.2902753  74.3641313  25.7050113  25.4402753  74.5451313
  24.8140113  26.3762753  74.0861313  25.5250113  26.1772753  74.3501313
  15.3890113  34.7842753  73.5741313  15.2440113  34.9402753  72.7281313
  16.2550113  34.8632753  73.6521313  15.4960113  34.8192753  73.4611313
  19.5560113  27.1812753  73.3021313  19.6560113  27.3202753  72.4471313
  20.3740113  27.1212753  73.5981313  19.6910113  27.1922753  73.2191313
  28.7160113  35.2452753  70.7821313  29.3530113  35.1112753  71.3631313
  28.3750113  34.4512753  70.6651313  28.7600113  35.1082753  70.8501313
  24.7910113  31.5102753  73.1041313  24.5400113  31.3822753  73.9301313
  24.4740113  30.8152753  72.6831313  24.7070113  31.3892753  73.1641313
  29.4350113  23.1682753  81.2241313  28.6020113  23.4182753  81.1521313
  29.3790113  22.3282753  81.4531313  29.3040113  23.0812753  81.2471313
  16.0760113  33.5992753  80.0511313  15.9970113  32.7892753  79.7351313
  15.6320113  34.0862753  79.4791313  15.9990113  33.5512753  79.9201313
  21.6770113  29.7182753  72.5341313  22.3940113  29.3712753  72.1781313
  21.6430113  30.5182753  72.1861313  21.7780113  29.7852753  72.4301313
  23.0860113  18.3592753  56.7728903  22.8410113  18.8472753  56.0928903
  23.9490113  18.2862753  56.6728903  23.1770113  18.4202753  56.6578903
  22.8950113  25.2752753  61.4438903  22.3710113  25.8712753  61.8068903
  23.2920113  24.9072753  62.1278903  22.8760113  25.3092753  61.5988903
  12.7640113  29.4152753  56.8998903  12.3230113  29.5332753  57.6428903
  12.4810113  28.6402753  56.6148903  12.6570113  29.3182753  56.9678903
  29.0390113  32.7162753  54.4148903  29.7400113  32.1972753  54.4108903
  28.4520113  32.2712753  53.9458903  29.0560113  32.5732753  54.3448903
  12.5070113  23.2072753  53.4068903  11.7290113  23.3692753  53.0468903
  12.5460113  22.3362753  53.4288903  12.3980113  23.1022753  53.3568903
  15.6460113  28.4702753  52.0788903  15.2540113  28.0992753  51.3928903
  15.5660113  27.8722753  52.7078903  15.5760113  28.3272753  52.0698903
  25.5660113  26.3422753  58.1198903  25.6460113  26.3462753  57.2508903
  24.9820113  25.7102753  58.2688903  25.4910113  26.2492753  58.0138903
  15.2730113  30.1112753  55.9788903  15.8810113  29.9412753  56.5818903
  14.5220113  29.9712753  56.3998903  15.2520113  30.0652753  56.1298903
  19.5550113  19.4462753  55.9278903  19.4850113  20.1232753  55.3818903
  20.2960113  19.0582753  55.6788903  19.6540113  19.4892753  55.8098903
  14.1640113  33.2022753  52.0558903  14.6310113  33.2862753  51.3238903
  14.6190113  32.6242753  52.5248903  14.3000113  33.1292753  52.0168903
  12.7040113  32.1502753  63.1548903  12.8330113  31.8702753  63.9708903
  12.0940113  31.6092753  62.8458903  12.6330113  32.0292753  63.2298903
  19.2780113  29.6752753  68.2218903  19.0420113  29.6722753  69.0618903
  18.5300113  29.5272753  67.7978903  19.1320113  29.6522753  68.2828903
  14.1500113  26.6712753  57.3568903  13.6880113  26.2792753  56.7298903
  14.8500113  26.1582753  57.4488903  14.1850113  26.5382753  57.2778903
  18.6580113  22.2812753  62.7038903  19.3360113  22.2992753  62.1548903
  18.6130113  21.4452753  62.9488903  18.7510113  22.1602753  62.6588903
  19.2600113  32.8672753  65.4848903  19.3980113  33.6272753  65.0778903
  20.0510113  32.5022753  65.5118903  19.3970113  32.9262753  65.4288903
  16.1510113  24.7712753  57.3798903  16.9680113  24.5842753  57.6228903
  15.6740113  24.1572753  57.7758903  16.2010113  24.6532753  57.4748903
  20.3550113  30.7522753  59.9898903  20.7030113  29.9532753  60.0198903
  21.0200113  31.2562753  59.7348903  20.5050113  30.7082753  59.9568903
  20.4120113  30.2012753  56.2008903  20.7430113  29.5572753  56.6868903
  20.6520113  29.9902753  55.3898903  20.4960113  30.0752753  56.1528903
  22.3800113  24.3322753  67.5398903  21.5320113  24.2332753  67.3618903
  22.4090113  25.0772753  67.9938903  22.2590113  24.4282753  67.5808903
  16.7480113  19.8652753  56.6458903  16.4520113  20.3662753  55.9958903
  17.6150113  19.9432753  56.5888903  16.8320113  19.9512753  56.5418903
  26.9380113  17.2922753  66.6538903  26.7800113  18.0612753  66.2718903
  26.1660113  17.0722753  66.9978903  26.8000113  17.3732753  66.6488903
  19.7270113  19.0072753  58.8688903  19.8000113  19.8672753  58.9978903
  19.6890113  18.9322753  58.0008903  19.7320113  19.1232753  58.7598903
  24.4000113  21.9332753  51.1678903  23.9500113  22.6142753  51.4748903
  24.5140113  21.4292753  51.8708903  24.3510113  21.9592753  51.3168903
  12.6060113  24.4322753  60.3698903  12.3500113  25.2632753  60.2948903
  11.9420113  24.0492753  60.7868903  12.4700113  24.4982753  60.4208903
  12.5160113  34.1422753  58.2698903  11.9240113  34.7002753  57.9568903
  12.9420113  33.8732753  57.5578903  12.4920113  34.1842753  58.1188903
  18.3560113  31.9862753  55.7498903  17.7770113  31.7112753  56.3418903
  18.9800113  31.3772753  55.7748903  18.3630113  31.8562753  55.8408903
  15.6350113  19.2492753  60.8608903  15.1140113  18.6212753  60.5528903
  16.2260113  18.8122753  61.3318903  15.6460113  19.0912753  60.8848903
  18.9410113  21.3822753  70.1588903  19.0580113  20.9282753  69.4228903
  19.2290113  22.1802753  69.9558903  19.0010113  21.4332753  70.0198903
  14.0610113  32.8122753  56.2008903  14.7170113  32.2372753  56.2158903
  14.4500113  33.5612753  55.9798903  14.2160113  32.8372753  56.1708903
  29.7940113  21.9062753  57.4628903  29.4480113  22.5842753  57.8888903
  29.1580113  21.3082753  57.4788903  29.6490113  21.9182753  57.5278903
  25.1060113  34.6762753  63.5668903  25.8500113  35.1322753  63.5568903
  24.9850113  34.4622753  62.7298903  25.1980113  34.7122753  63.4418903
  14.6740113  20.9792753  69.1428903  13.8960113  20.5892753  69.0708903
  15.1650113  20.5672753  68.5518903  14.6310113  20.8602753  69.0448903
  14.8790113  31.2992753  59.7008903  15.3020113  30.9432753  59.0268903
  15.2030113  30.8772753  60.3928903  14.9890113  31.1842753  59.7038903
  18.1100113  34.1512753  58.9968903  18.9540113  34.2552753  58.8018903
  17.8130113  34.9692753  59.0648903  18.1910113  34.2872753  58.9778903
  21.3230113  18.6222753  68.3108903  21.5010113  17.8132753  68.0358903
  21.1800113  19.0632753  67.5718903  21.3280113  18.5682753  68.1608903
  21.9170113  23.5482753  57.0838903  22.2040113  23.3162753  56.2938903
  22.6490113  23.6272753  57.5528903  22.0670113  23.5252753  57.0368903
  22.6390113  23.8872753  52.2048903  22.9200113  24.6752753  52.4538903
  21.8630113  24.0522753  51.8418903  22.5660113  24.0282753  52.1878903
  17.1080113  35.3702753  64.7368903  17.4000113  35.3032753  65.5568903
  16.4820113  34.7652753  64.6918903  17.0590113  35.2712753  64.8518903
  29.4690113  20.2292753  62.8318903  30.2260113  20.3012753  62.4038903
  29.5320113  19.4562753  63.2308903  29.5900113  20.1262753  62.8268903
  12.0220113  21.5272753  66.7288903  12.0180113  22.1142753  67.3748903
  12.6160113  21.8392753  66.1718903  12.1090113  21.6602753  66.7418903
  24.3600113  31.8612753  67.2708903  24.3260113  32.2432753  68.0548903
  25.2140113  31.8192753  67.0998903  24.4810113  31.9112753  67.3618903
  21.4980113  32.0582753  52.0208903  21.3170113  32.6032753  52.6778903
  22.2640113  32.3482753  51.7198903  21.5840113  32.1822753  52.0738903
  25.0050113  19.9542753  53.0748903  25.5450113  19.2722753  53.1508903
  25.0670113  20.3522753  53.8488903  25.0940113  19.9122753  53.2008903
  12.9590113  21.1222753  55.6438903  12.8450113  20.2582753  55.6748903
  12.4840113  21.4162753  56.3138903  12.8720113  21.0382753  55.7468903
  15.1010113  33.5322753  63.8588903  14.4030113  33.0242753  63.9848903
  15.3610113  33.3272753  63.0508903  15.0360113  33.4272753  63.7578903
  22.2630113  22.3302753  54.3888903  21.7550113  21.6682753  54.1348903
  22.3150113  22.8342753  53.6788903  22.1960113  22.3072753  54.2468903
  22.8120113  35.0252753  64.7688903  23.5800113  34.9452753  64.3628903
  22.2290113  34.9042753  64.1308903  22.8390113  34.9952753  64.6148903
  22.2630113  19.2712753  54.2798903  21.8080113  18.8692753  53.6538903
  23.0360113  19.4262753  53.9048903  22.3100113  19.2352753  54.1318903
  29.0890113  35.6282753  57.6698903  28.6340113  36.3452753  57.8708903
  28.4750113  35.0572753  57.4278903  28.9310113  35.6502753  57.6638903
  20.8610113  21.6382753  58.8018903  20.9350113  22.2062753  58.1438903
  20.9820113  22.1302753  59.5118903  20.8890113  21.7952753  58.8098903
  26.0860113  31.4732753  57.2138903  26.7870113  30.9912753  57.4028903
  25.4260113  30.9042753  57.2588903  26.0920113  31.3182753  57.2478903
  16.4620113  32.3832753  66.4258903  17.3030113  32.4462753  66.2038903
  16.4250113  32.7802753  67.2018903  16.5810113  32.4512753  66.5078903
  15.4690113  17.4612753  57.1498903  16.0050113  18.1492753  57.1398903
  15.4720113  17.1872753  56.3218903  15.5480113  17.5222753  57.0258903
  18.4250113  27.8942753  61.1748903  18.5970113  27.6842753  62.0038903
  17.7700113  27.3602753  60.9588903  18.3540113  27.7842753  61.2658903
  24.6530113  21.8082753  64.6898903  24.5580113  22.1272753  65.4958903
  24.0600113  21.1692753  64.6518903  24.5510113  21.7602753  64.8038903
  19.1750113  27.8322753  63.7648903  19.2280113  28.6792753  63.9668903
  18.8900113  27.4622753  64.5018903  19.1410113  27.9022753  63.9028903
  25.3520113  28.5272753  62.8948903  24.8380113  28.1152753  63.4658903
  25.2260113  29.3712753  63.0758903  25.2580113  28.5912753  63.0058903
  25.9090113  17.7522753  57.5258903  25.9580113  17.4342753  58.3368903
  26.2320113  17.1082753  57.0328903  25.9640113  17.6102753  57.5728903
  11.9960113  32.2032753  69.9758903  12.7520113  32.5522753  70.2338903
  12.1730113  31.3502753  69.9188903  12.1340113  32.1282753  70.0058903
  28.3730113  21.9882753  65.8338903  29.1450113  21.7632753  66.1708903
  27.8980113  22.2052753  66.5338903  28.4170113  21.9872753  65.9868903
  15.9170113  21.2712753  58.8038903  16.1890113  20.8412753  58.0958903
  15.7410113  20.6352753  59.3748903  15.9310113  21.1142753  58.7838903
  15.7410113  28.6982753  58.3528903  16.5920113  28.6182753  58.1798903
  15.3840113  28.0162753  57.9408903  15.8140113  28.5852753  58.2658903
  14.5080113  35.4232753  59.5898903  13.8350113  34.9252753  59.3448903
  14.9110113  35.6082753  58.8388903  14.4680113  35.3772753  59.4428903
  14.0580113  22.3732753  61.8858903  14.9010113  22.5932753  61.8428903
  13.6690113  22.9462753  61.3548903  14.1250113  22.4902753  61.8008903
  30.8390113  33.4752753  67.2758903  30.1570113  33.7852753  66.8288903
  30.4700113  33.0172753  67.9208903  30.6830113  33.4532753  67.3048903
  26.5000113  25.5032753  52.6068903  26.2800113  26.2342753  52.1848903
  26.0520113  25.5542753  53.3538903  26.4010113  25.6182753  52.6548903
  18.1090113  28.7052753  56.5878903  18.8220113  29.2002753  56.6778903
  18.3310113  28.1382753  55.9618903  18.2470113  28.6942753  56.5088903
  30.6870113  20.3642753  52.0598903  30.0250113  19.7962753  52.0828903
  30.4940113  20.8762753  51.3798903  30.5610113  20.3562753  51.9628903
  12.2650113  30.3482753  59.9078903  11.5980113  30.8362753  60.1838903
  12.9450113  30.8932753  59.9368903  12.2670113  30.5002753  59.9528903
  19.9120113  24.0582753  70.0038903  19.4280113  24.6352753  70.4458903
  19.8840113  24.3532753  69.1828903  19.8360113  24.1872753  69.9478903
  31.0100113  24.7422753  64.6158903  31.2250113  23.9422753  64.3398903
  30.1600113  24.8022753  64.4268903  30.9160113  24.6332753  64.5468903
  12.3310113  27.0322753  55.0108903  12.1460113  26.1932753  55.1628903
  12.9900113  26.9962753  54.4408903  12.4010113  26.9032753  54.9488903
  28.6890113  19.9222753  54.3388903  29.4350113  19.5152753  54.5378903
  28.9520113  20.6372753  53.9138903  28.8380113  19.9682753  54.3058903
  22.6320113  32.4082753  58.9148903  22.1090113  33.0422753  58.6218903
  22.9420113  32.0442753  58.1858903  22.6000113  32.4482753  58.7638903
  12.5030113  31.1962753  54.5858903  13.0550113  31.7652753  54.9498903
  12.2710113  30.6812753  55.2508903  12.5500113  31.2042753  54.7378903
  16.7070113  30.1962753  61.6748903  17.1740113  30.4852753  62.3528903
  17.2790113  29.7182753  61.2208903  16.8610113  30.1682753  61.7078903
  25.1430113  22.2102753  59.4118903  25.4870113  22.3622753  60.1988903
  24.6900113  21.4722753  59.5248903  25.1270113  22.1232753  59.5448903
  12.3330113  29.6452753  52.2138903  13.0890113  29.2132753  52.2718903
  12.3480113  30.1772753  52.9048903  12.4470113  29.6602753  52.3248903
  13.2730113  27.8662753  60.2188903  13.7040113  27.7372753  59.4718903
  13.0680113  28.7142753  60.1928903  13.3060113  27.9722753  60.1048903
  19.6190113  21.4302753  53.8688903  19.6170113  21.3132753  53.0038903
  19.4380113  22.2782753  53.9608903  19.5920113  21.5382753  53.7548903
  28.6730113  33.8572753  65.3658903  28.0020113  34.3712753  65.5838903
  28.7360113  33.9572753  64.5018903  28.5830113  33.9482753  65.2708903
  17.3570113  31.3822753  58.5008903  17.4830113  32.2252753  58.6878903
  18.0250113  30.9832753  58.8968903  17.4750113  31.4482753  58.5868903
  15.4870113  24.8652753  68.3628903  14.9510113  24.3592753  68.8308903
  15.5070113  24.4752753  67.5828903  15.4100113  24.7322753  68.3168903
  15.9720113  24.2622753  53.5028903  15.8440113  23.8142753  54.2408903
  15.3900113  23.9202753  52.9508903  15.8670113  24.1452753  53.5308903
  16.1390113  26.0922753  60.1018903  15.3580113  26.0332753  59.7188903
  16.2110113  25.3402753  60.5388903  16.0340113  25.9732753  60.1098903
  16.5690113  25.8292753  63.5698903  16.5940113  25.1542753  63.0188903
  15.9230113  26.3252753  63.2578903  16.4780113  25.8022753  63.4428903
  26.4640113  23.5422753  61.9658903  25.8020113  23.8702753  62.4288903
  26.6510113  24.1762753  61.3968903  26.3940113  23.6842753  61.9498903
  20.6690113  34.6062753  62.9618903  20.3920113  33.9652753  62.4388903
  20.4610113  35.3322753  62.5238903  20.5980113  34.6192753  62.8198903
  23.1090113  19.4482753  65.3948903  23.2580113  18.6232753  65.1518903
  23.4880113  19.5032753  66.1788903  23.1870113  19.3342753  65.4748903
  24.6570113  21.5112753  55.4768903  25.1470113  22.2282753  55.3998903
  23.8670113  21.7722753  55.2138903  24.6130113  21.6552753  55.4268903
  14.3680113  27.1842753  69.1288903  14.3310113  27.6852753  68.4148903
  14.6990113  26.4322753  68.8338903  14.4110113  27.1462753  68.9798903
  25.9710113  29.3892753  67.3868903  26.4550113  30.1072753  67.4848903
  26.3650113  28.9622753  66.7358903  26.1010113  29.4322753  67.3048903
  20.2670113  32.2342753  68.5638903  20.6210113  32.0562753  69.3408903
  19.8310113  31.5052753  68.3648903  20.2550113  32.1002753  68.6498903
  21.2390113  22.9812753  61.2018903  21.7190113  23.6802753  61.4098903
  21.6120113  22.3342753  61.6528903  21.3650113  22.9892753  61.2988903
  23.4280113  26.1502753  53.4758903  23.4200113  26.8722753  52.9858903
  22.7890113  26.2852753  54.0528903  23.3330113  26.2772753  53.4888903
  28.4000113  30.0202753  57.4568903  28.7560113  29.6702753  58.1718903
  28.3920113  29.3592753  56.8868903  28.4520113  29.8702753  57.4778903
  24.4450113  33.0862753  61.3008903  23.8420113  32.7902753  60.7438903
  24.9900113  33.5382753  60.7918903  24.4360113  33.1092753  61.1428903
  24.4580113  29.9372753  60.7008903  23.6610113  30.1612753  60.9748903
  24.7160113  29.3432753  61.2858903  24.3780113  29.8822753  60.8278903
  18.3500113  34.7492753  55.1488903  18.2030113  33.9732753  55.5198903
  19.0390113  34.6022753  54.6338903  18.4300113  34.6122753  55.1278903
  18.0210113  18.4922753  53.1368903  18.1180113  18.3852753  53.9978903
  17.3130113  18.9982753  53.0718903  17.9310113  18.5512753  53.2548903
  20.6420113  34.2652753  53.5508903  21.2640113  34.4282753  54.1408903
  20.6780113  34.9562753  53.0188903  20.7390113  34.3912753  53.5598903
  27.7180113  27.9352753  65.5468903  27.7730113  28.0602753  64.6848903
  28.4710113  28.2552753  65.8488903  27.8370113  28.0002753  65.4638903
  23.9090113  33.2842753  69.8238903  24.0730113  33.5672753  70.6328903
  24.1720113  33.9452753  69.3188903  23.9720113  33.4242753  69.8688903
  28.7500113  18.2332753  68.5338903  28.1130113  17.8332753  68.0918903
  28.7760113  17.8022753  69.2918903  28.6600113  18.1112753  68.5798903
  15.1430113  26.7992753  54.3798903  15.4670113  26.0202753  54.1578903
  15.7890113  27.1672753  54.8348903  15.2860113  26.7382753  54.4138903
  23.4490113  27.7412753  65.1468903  23.2940113  28.3512753  65.7508903
  23.9830113  27.1832753  65.5528903  23.5050113  27.7492753  65.2958903
  12.1400113  18.4602753  55.3478903  12.2690113  17.7522753  54.8558903
  11.7730113  18.1422753  56.0728903  12.1050113  18.3082753  55.3828903
  21.8330113  26.1412753  55.8048903  21.8920113  26.7912753  56.3838903
  21.6440113  25.4452753  56.2958903  21.8140113  26.1342753  55.9628903
  27.0590113  30.4702753  61.6738903  26.5800113  30.7682753  61.0078903
  26.7030113  29.6942753  61.8518903  26.9360113  30.3992753  61.6018903
  16.3290113  20.6582753  52.3168903  15.8180113  20.7112753  51.6108903
  17.1130113  20.8982753  52.0208903  16.3690113  20.7012753  52.1688903
  21.0560113  28.1882753  60.2358903  20.2090113  27.9942753  60.3168903
  21.3800113  28.0232753  61.0288903  20.9780113  28.1352753  60.3648903
  17.8080113  34.9182753  51.1218903  18.2470113  34.2212753  51.4098903
  18.0150113  35.5422753  51.6948903  17.9040113  34.9072753  51.2488903
  14.9040113  27.8812753  62.5518903  15.6260113  28.3692753  62.5148903
  14.6340113  27.8512753  61.7228903  14.9710113  27.9492753  62.4238903
  18.1340113  23.0522753  59.2868903  18.9800113  22.8622753  59.3848903
  17.7640113  22.2752753  59.1488903  18.2040113  22.9092753  59.2808903
  30.7510113  34.6362753  53.6138903  31.4450113  34.1692753  53.3658903
  30.2120113  34.0382753  53.9508903  30.7740113  34.4782753  53.6268903
  12.9550113  24.3902753  55.9418903  13.4440113  24.0982753  56.6028903
  13.0840113  23.7972753  55.3148903  13.0460113  24.2592753  55.9468903
  27.9900113  27.4122753  62.7928903  27.9830113  26.6362753  63.1908903
  27.1490113  27.6462753  62.7858903  27.8650113  27.3322753  62.8508903
  17.4800113  25.8242753  51.4278903  16.8700113  25.4192753  51.9018903
  17.0940113  25.9422753  50.6548903  17.3330113  25.7812753  51.3838903
  14.2990113  28.9332753  66.8298903  13.8780113  28.4152753  66.2688903
  13.9470113  29.7192753  66.6868903  14.1850113  28.9732753  66.7258903
  29.2460113  27.4832753  60.2298903  28.9600113  27.8842753  60.9498903
  30.1060113  27.4212753  60.3568903  29.3310113  27.5332753  60.3548903
  18.9350113  24.2852753  54.1378903  19.2070113  25.1112753  54.2048903
  18.0720113  24.3602753  54.0418903  18.8480113  24.4182753  54.1328903
  26.9080113  21.4072753  68.7698903  26.3830113  21.8662753  69.2938903
  26.5470113  20.6122753  68.7638903  26.7770113  21.3572753  68.8458903
  12.4150113  20.2552753  60.6738903  12.4590113  20.5992753  59.8728903
  13.1700113  20.4922753  61.0408903  12.5330113  20.3412753  60.6098903
  30.3770113  33.1162753  60.7588903  30.6670113  33.3732753  59.9778903
  31.0720113  33.2122753  61.2778903  30.5230113  33.1682753  60.7198903
  25.4000113  24.9762753  68.8458903  25.4730113  25.0802753  69.7088903
  24.7660113  25.5342753  68.6248903  25.3170113  25.0742753  68.9408903
  27.6680113  25.2952753  67.2108903  27.9870113  26.0812753  67.4138903
  27.2980113  25.0252753  67.9538903  27.6610113  25.3712753  67.3508903
  26.9820113  31.7192753  52.7408903  27.3160113  30.9132753  52.7758903
  26.2270113  31.6472753  53.1708903  26.9200113  31.5892753  52.8098903
  27.4640113  23.5532753  58.3998903  26.7190113  23.2302753  58.7178903
  27.4660113  24.3792753  58.6798903  27.3540113  23.6272753  58.4878903
  30.3660113  25.8372753  69.9458903  30.3140113  25.4962753  69.1448903
  31.1030113  26.3042753  69.9238903  30.4670113  25.8562753  69.8238903
  29.9040113  29.5132753  66.1518903  30.5320113  28.9642753  65.8958903
  29.8430113  30.0782753  65.4898903  29.9880113  29.5162753  66.0158903
  24.3560113  29.5942753  52.1438903  25.0400113  29.0802753  51.9748903
  23.9390113  29.6402753  51.3788903  24.3950113  29.5252753  52.0058903
  19.0380113  30.7442753  63.4478903  18.7400113  31.3362753  64.0148903
  19.0930113  31.1862753  62.6988903  19.0020113  30.8972753  63.4208903
  17.0170113  29.6942753  66.8458903  16.2110113  29.4042753  67.0128903
  16.9280113  30.5622753  66.8518903  16.8850113  29.7792753  66.8708903
  26.3760113  19.8832753  65.8608903  27.1200113  20.3352753  65.7978903
  25.8100113  20.3532753  65.3918903  26.4030113  20.0202753  65.7828903
  21.5540113  27.1672753  62.9388903  22.0300113  27.5412753  63.5668903
  20.7310113  27.3012753  63.1978903  21.5030113  27.2422753  63.0698903
  18.2640113  22.7702753  65.6798903  18.4250113  22.0262753  66.1068903
  18.2190113  22.5212753  64.8448903  18.2810113  22.6232753  65.6198903
  20.8180113  34.5602753  58.1668903  21.3640113  35.2392753  58.2208903
  20.4680113  34.6422753  57.3718903  20.8470113  34.6732753  58.0568903
  27.6610113  17.8632753  63.5308903  27.3810113  18.6882753  63.4868903
  28.3770113  17.9162753  64.0268903  27.7260113  17.9932753  63.5978903
  20.0160113  18.5782753  65.5598903  20.7210113  18.8982753  65.1578903
  20.2570113  17.7712753  65.7868903  20.1550113  18.5062753  65.5338903
  19.0010113  32.7882753  61.5558903  18.3770113  33.3702753  61.3738903
  19.2490113  32.5022753  60.7698903  18.9450113  32.8322753  61.4128903
  23.3100113  29.4222753  68.5448903  24.0670113  29.7082753  68.2188903
  22.7630113  29.4742753  67.8668903  23.3410113  29.4722753  68.3958903
  27.2190113  31.9722753  67.0488903  27.5650113  32.2422753  67.8028903
  27.5130113  32.5542753  66.4688903  27.3140113  32.0982753  67.0748903
  29.0820113  24.1182753  52.3878903  29.4600113  24.7952753  51.9878903
  28.2400113  24.3422753  52.4188903  29.0130113  24.2512753  52.3328903
  20.5950113  27.5642753  51.4708903  19.7900113  27.3872753  51.1858903
  20.5620113  28.4152753  51.6628903  20.4710113  27.6632753  51.4578903
  16.5250113  23.6312753  61.6208903  16.9650113  23.5282753  60.8748903
  17.0700113  23.3182753  62.2258903  16.6700113  23.5702753  61.5998903
  24.5410113  22.7332753  67.2128903  23.8930113  23.2032753  67.5608903
  25.1060113  22.6442753  67.8718903  24.5290113  22.7892753  67.3618903
  24.2290113  24.2702753  63.5108903  24.5310113  24.6902753  64.2138903
  24.2650113  23.4302753  63.7428903  24.2790113  24.2082753  63.6488903
  21.6540113  34.4372753  67.4358903  22.1320113  33.8372753  67.0198903
  21.3030113  33.9942753  68.1008903  21.6730113  34.2832753  67.4728903
  26.7770113  23.7172753  55.7628903  26.9840113  23.5162753  56.5868903
  27.5330113  23.9852753  55.4208903  26.9190113  23.7272753  55.8338903
  20.0720113  18.6162753  61.6678903  19.2460113  18.4672753  61.9048903
  20.0320113  18.6512753  60.7968903  19.9440113  18.5992753  61.5738903
  27.7990113  19.8002753  57.2368903  27.0850113  19.3292753  57.4078903
  27.6370113  20.1412753  56.4508903  27.6700113  19.7812753  57.1458903
  28.2420113  27.7442753  55.6168903  28.7180113  27.0152753  55.5688903
  27.4210113  27.4582753  55.5408903  28.1910113  27.5942753  55.5978903
  21.7130113  29.6562753  66.4558903  20.9180113  29.5922753  66.8068903
  21.7840113  30.5032753  66.2608903  21.6060113  29.7712753  66.4788903
  12.6370113  19.0142753  67.7028903  12.4970113  19.8092753  67.3718903
  11.8510113  18.7712753  67.9918903  12.5000113  19.0962753  67.6968903
  17.5430113  35.8632753  61.7728903  17.5540113  35.9222753  62.6428903
  17.1180113  35.1162753  61.6228903  17.4820113  35.7612753  61.8788903
  15.7010113  21.7582753  54.9278903  15.8270113  21.4292753  54.1298903
  14.8890113  21.5092753  55.1268903  15.6000113  21.6732753  54.8398903
  24.4580113  28.9112753  57.9718903  24.5340113  29.2522753  58.7708903
  24.6270113  28.0642753  58.0928903  24.4940113  28.8362753  58.1078903
  21.9800113  28.1852753  57.5368903  21.6820113  27.8702753  58.2938903
  22.6750113  28.6582753  57.7718903  22.0390113  28.2082753  57.6838903
  22.2020113  32.3032753  65.5638903  22.8890113  32.1892753  66.0888903
  22.3360113  33.0942753  65.2198903  22.3230113  32.4032753  65.5908903
  30.3780113  24.9122753  67.3748903  29.5230113  24.7902753  67.5008903
  30.5310113  24.5172753  66.6118903  30.2740113  24.8352753  67.2808903
  24.8910113  25.5772753  65.9508903  24.6360113  24.8582753  66.3728903
  25.7120113  25.6932753  66.2208903  24.9750113  25.4882753  66.0528903
  14.3070113  35.3612753  67.2148903  13.6530113  34.7922753  67.3128903
  13.9320113  36.1342753  67.3658903  14.1550113  35.3912753  67.2518903
  22.8250113  26.7672753  69.1378903  23.1480113  27.4532753  68.7058903
  22.1210113  27.0902753  69.5398903  22.7680113  26.9162753  69.1328903
  25.9090113  35.1412753  60.0668903  25.4580113  35.7842753  60.4458903
  26.6170113  35.0622753  60.5718903  25.9470113  35.2242753  60.1978903
  22.6100113  30.2312753  62.9968903  21.9160113  30.6332753  63.3398903
  23.2870113  30.6642753  63.3358903  22.6070113  30.3542753  63.0978903
  27.9870113  32.8242753  69.5768903  28.7630113  32.4342753  69.6598903
  27.5180113  32.4882753  70.2318903  28.0320113  32.7172753  69.6858903
  15.6780113  23.7692753  65.3438903  16.0530113  24.3882753  64.8568903
  16.3520113  23.2952753  65.6288903  15.8330113  23.7912753  65.3138903
  13.4530113  22.2172753  64.6188903  13.5300113  22.0482753  63.7658903
  14.1990113  22.6232753  64.8158903  13.5740113  22.2522753  64.5218903
  29.0120113  24.8572753  55.0588903  29.1150113  24.7992753  54.1948903
  29.7530113  24.5252753  55.3768903  29.1370113  24.8002753  54.9778903
  16.0070113  19.6272753  67.0298903  15.9260113  18.7832753  67.2358903
  15.6930113  19.6712753  66.2168903  15.9490113  19.5092753  66.9398903
  22.9320113  31.8222753  56.1658903  22.7270113  32.6552753  56.0068903
  22.1570113  31.4402753  56.2878903  22.7870113  31.8892753  56.1608903
  28.1140113  25.0032753  64.4148903  28.1120113  24.1402753  64.5388903
  28.1810113  25.3272753  65.2218903  28.1240113  24.9232753  64.5518903
  12.8500113  27.4432753  64.8428903  13.1700113  27.6622753  64.0618903
  12.7500113  26.5782753  64.7878903  12.8820113  27.3482753  64.7198903
  14.3060113  23.3792753  51.4608903  13.6340113  23.3932753  52.0168903
  14.4010113  22.5312753  51.2768903  14.2210113  23.2562753  51.5158903
  23.9930113  19.8032753  68.1968903  24.0850113  20.5152753  68.6908903
  23.3560113  19.3582753  68.5938903  23.9120113  19.8422753  68.3288903
  22.9870113  19.9932753  59.0508903  22.2870113  20.5112753  58.9948903
  23.0250113  19.6132753  58.2668903  22.8890113  20.0142753  58.9268903
  18.2940113  32.0842753  52.5748903  18.7350113  32.1642753  53.3228903
  17.4890113  31.8682753  52.8328903  18.2400113  32.0642753  52.7238903
  26.5850113  20.5092753  61.8508903  27.4400113  20.6082753  61.9958903
  26.2160113  21.0622753  62.4158903  26.6570113  20.6062753  61.9558903
  17.6130113  26.7352753  66.2278903  17.2170113  27.5092753  66.3028903
  17.2070113  26.3622753  65.5518903  17.4950113  26.7942753  66.1388903
  26.8890113  25.7892753  60.3418903  27.5550113  26.3302753  60.5018903
  26.5440113  26.1002753  59.6028903  26.9360113  25.9152753  60.2568903
  27.2020113  33.8552753  56.1488903  27.0280113  33.2012753  56.6988903
  27.9150113  33.5842753  55.7258903  27.2820113  33.7182753  56.1678903
  15.6230113  31.1542753  53.1758903  15.3790113  30.8472753  53.9558903
  15.5900113  30.4512753  52.6598903  15.5820113  31.0052753  53.2148903
  18.4420113  29.3992753  51.9188903  17.6240113  29.1312753  52.0588903
  18.4140113  30.2512753  52.1038903  18.3170113  29.4862753  51.9668903
  18.0420113  19.7122753  63.6778903  17.1780113  19.7962753  63.7578903
  18.2620113  19.1982753  64.3468903  17.9470113  19.6492753  63.7888903
  30.0600113  18.3472753  65.0068903  30.0080113  18.3032753  65.8768903
  30.7470113  17.8442753  64.8168903  30.1540113  18.2672753  65.1068903
  22.1450113  20.4602753  62.0518903  21.4080113  20.0062753  62.1648903
  22.7160113  20.0582753  62.5748903  22.1200113  20.3332753  62.1458903
  24.8770113  31.3082753  63.8398903  25.0830113  31.6092753  64.6318903
  24.8160113  32.0302753  63.3548903  24.8980113  31.4592753  63.8848903
  24.4110113  35.5222753  68.0858903  23.6580113  35.5042753  67.6448903
  24.5790113  36.3742753  68.1698903  24.3250113  35.6452753  68.0328903
  19.6480113  24.7892753  67.2558903  19.3260113  24.2132753  66.6858903
  19.2890113  25.5442753  67.0098903  19.5480113  24.8152753  67.1358903
  20.4440113  18.0412753  51.8828903  20.5220113  18.2882753  51.0498903
  19.7010113  18.4182753  52.1408903  20.3460113  18.1332753  51.7978903
  29.6890113  29.9472753  63.2978903  29.6570113  29.0852753  63.1628903
  28.9960113  30.2492753  62.8638903  29.5820113  29.8642753  63.2138903
  18.0830113  35.1452753  67.5038903  18.1240113  35.2712753  68.3668903
  18.7340113  34.5852753  67.3478903  18.1850113  35.0812753  67.6088903
  27.7940113  33.2072753  62.0948903  28.3210113  33.1242753  61.4038903
  27.4030113  32.4292753  62.1488903  27.8140113  33.0802753  62.0008903
  15.2620113  19.7952753  64.3258903  14.9190113  19.0282753  64.0918903
  14.5670113  20.3192753  64.3898903  15.1090113  19.7592753  64.3008903
  24.3080113  18.6512753  61.3028903  24.9780113  19.1952753  61.4298903
  23.8050113  19.0752753  60.7298903  24.3330113  18.7942753  61.2368903
  15.6760113  33.5282753  68.8638903  16.2710113  33.9592753  69.3358903
  15.3120113  34.1522753  68.3748903  15.7100113  33.6842753  68.8608903
  23.6670113  24.4592753  58.7958903  24.2180113  23.8522753  59.0958903
  23.2420113  24.7222753  59.5108903  23.6860113  24.4082753  58.9448903
  13.9150113  23.1092753  58.2818903  13.5470113  23.4112753  59.0128903
  14.4490113  22.4802753  58.5658903  13.9390113  23.0612753  58.4318903
  13.6030113  31.5172753  65.7928903  13.0290113  31.9332753  66.3018903
  14.3360113  31.9822753  65.8878903  13.6270113  31.6472753  65.8818903
  25.6370113  26.2902753  55.3578903  25.7050113  25.4402753  55.5388903
  24.8140113  26.3762753  55.0798903  25.5250113  26.1772753  55.3438903
  15.3890113  34.7842753  54.5678903  15.2440113  34.9402753  53.7218903
  16.2550113  34.8632753  54.6458903  15.4960113  34.8192753  54.4548903
  19.5560113  27.1812753  54.2958903  19.6560113  27.3202753  53.4408903
  20.3740113  27.1212753  54.5918903  19.6910113  27.1922753  54.2128903
  28.9110113  27.6632753  68.5088903  29.5450113  27.4932753  69.0828903
  29.3280113  28.0662753  67.8568903  29.0660113  27.6982753  68.4978903
  24.7910113  31.5102753  54.0978903  24.5400113  31.3822753  54.9238903
  24.4740113  30.8152753  53.6768903  24.7070113  31.3892753  54.1578903
  29.5360113  22.2272753  69.2468903  29.3400113  22.8712753  69.8018903
  28.8140113  21.7372753  69.2388903  29.4010113  22.2502753  69.3278903
  29.4350113  23.1682753  62.2178903  28.6020113  23.4182753  62.1458903
  29.3790113  22.3282753  62.4468903  29.3040113  23.0812753  62.2408903
  18.6950113  20.1562753  67.4118903  18.9290113  19.5802753  66.7988903
  17.8530113  19.9752753  67.5528903  18.6050113  20.0442753  67.3418903
  26.3220113  27.7742753  69.8638903  27.1930113  27.7382753  69.8278903
  26.1030113  28.1942753  69.1318903  26.4190113  27.8302753  69.7508903
  16.0760113  33.5992753  61.0448903  15.9970113  32.7892753  60.7288903
  15.6320113  34.0862753  60.4728903  15.9990113  33.5512753  60.9138903
  21.6770113  29.7182753  53.5278903  22.3940113  29.3712753  53.1718903
  21.6430113  30.5182753  53.1798903  21.7780113  29.7852753  53.4238903
  13.6480113  35.8432753  64.6258903  14.1410113  35.7872753  65.3438903
  13.8360113  35.1102753  64.1908903  13.7490113  35.7262753  64.6678903
  23.0860113  18.3592753  37.7666493  22.8410113  18.8472753  37.0866493
  23.9490113  18.2862753  37.6666493  23.1770113  18.4202753  37.6516493
  22.8950113  25.2752753  42.4376493  22.3710113  25.8712753  42.8006493
  23.2920113  24.9072753  43.1216493  22.8760113  25.3092753  42.5926493
  12.7640113  29.4152753  37.8936493  12.3230113  29.5332753  38.6366493
  12.4810113  28.6402753  37.6086493  12.6570113  29.3182753  37.9616493
  12.5070113  23.2072753  34.4006493  11.7290113  23.3692753  34.0406493
  12.5460113  22.3362753  34.4226493  12.3980113  23.1022753  34.3506493
  15.6460113  28.4702753  33.0726493  15.2540113  28.0992753  32.3866493
  15.5660113  27.8722753  33.7016493  15.5760113  28.3272753  33.0636493
  15.2730113  30.1112753  36.9726493  15.8810113  29.9412753  37.5756493
  14.5220113  29.9712753  37.3936493  15.2520113  30.0652753  37.1236493
  19.5550113  19.4462753  36.9216493  19.4850113  20.1232753  36.3756493
  20.2960113  19.0582753  36.6726493  19.6540113  19.4892753  36.8036493
  14.1640113  33.2022753  33.0496493  14.6310113  33.2862753  32.3176493
  14.6190113  32.6242753  33.5186493  14.3000113  33.1292753  33.0106493
  12.7040113  32.1502753  44.1486493  12.8330113  31.8702753  44.9646493
  12.0940113  31.6092753  43.8396493  12.6330113  32.0292753  44.2236493
  19.2780113  29.6752753  49.2156493  19.0420113  29.6722753  50.0556493
  18.5300113  29.5272753  48.7916493  19.1320113  29.6522753  49.2766493
  14.1500113  26.6712753  38.3506493  13.6880113  26.2792753  37.7236493
  14.8500113  26.1582753  38.4426493  14.1850113  26.5382753  38.2716493
  18.6580113  22.2812753  43.6976493  19.3360113  22.2992753  43.1486493
  18.6130113  21.4452753  43.9426493  18.7510113  22.1602753  43.6526493
  19.2600113  32.8672753  46.4786493  19.3980113  33.6272753  46.0716493
  20.0510113  32.5022753  46.5056493  19.3970113  32.9262753  46.4226493
  16.1510113  24.7712753  38.3736493  16.9680113  24.5842753  38.6166493
  15.6740113  24.1572753  38.7696493  16.2010113  24.6532753  38.4686493
  20.3550113  30.7522753  40.9836493  20.7030113  29.9532753  41.0136493
  21.0200113  31.2562753  40.7286493  20.5050113  30.7082753  40.9506493
  22.3800113  24.3322753  48.5336493  21.5320113  24.2332753  48.3556493
  22.4090113  25.0772753  48.9876493  22.2590113  24.4282753  48.5746493
  16.7480113  19.8652753  37.6396493  16.4520113  20.3662753  36.9896493
  17.6150113  19.9432753  37.5826493  16.8320113  19.9512753  37.5356493
  26.9380113  17.2922753  47.6476493  26.7800113  18.0612753  47.2656493
  26.1660113  17.0722753  47.9916493  26.8000113  17.3732753  47.6426493
  19.7270113  19.0072753  39.8626493  19.8000113  19.8672753  39.9916493
  19.6890113  18.9322753  38.9946493  19.7320113  19.1232753  39.7536493
  24.4000113  21.9332753  32.1616493  23.9500113  22.6142753  32.4686493
  24.5140113  21.4292753  32.8646493  24.3510113  21.9592753  32.3106493
  12.6060113  24.4322753  41.3636493  12.3500113  25.2632753  41.2886493
  11.9420113  24.0492753  41.7806493  12.4700113  24.4982753  41.4146493
  12.5160113  34.1422753  39.2636493  11.9240113  34.7002753  38.9506493
  12.9420113  33.8732753  38.5516493  12.4920113  34.1842753  39.1126493
  15.6350113  19.2492753  41.8546493  15.1140113  18.6212753  41.5466493
  16.2260113  18.8122753  42.3256493  15.6460113  19.0912753  41.8786493
  18.9410113  21.3822753  51.1526493  19.0580113  20.9282753  50.4166493
  19.2290113  22.1802753  50.9496493  19.0010113  21.4332753  51.0136493
  14.0610113  32.8122753  37.1946493  14.7170113  32.2372753  37.2096493
  14.4500113  33.5612753  36.9736493  14.2160113  32.8372753  37.1646493
  29.7940113  21.9062753  38.4566493  29.4480113  22.5842753  38.8826493
  29.1580113  21.3082753  38.4726493  29.6490113  21.9182753  38.5216493
  14.6740113  20.9792753  50.1366493  13.8960113  20.5892753  50.0646493
  15.1650113  20.5672753  49.5456493  14.6310113  20.8602753  50.0386493
  14.8790113  31.2992753  40.6946493  15.3020113  30.9432753  40.0206493
  15.2030113  30.8772753  41.3866493  14.9890113  31.1842753  40.6976493
  21.3230113  18.6222753  49.3046493  21.5010113  17.8132753  49.0296493
  21.1800113  19.0632753  48.5656493  21.3280113  18.5682753  49.1546493
  21.9170113  23.5482753  38.0776493  22.2040113  23.3162753  37.2876493
  22.6490113  23.6272753  38.5466493  22.0670113  23.5252753  38.0306493
  22.6390113  23.8872753  33.1986493  22.9200113  24.6752753  33.4476493
  21.8630113  24.0522753  32.8356493  22.5660113  24.0282753  33.1816493
  17.1080113  35.3702753  45.7306493  17.4000113  35.3032753  46.5506493
  16.4820113  34.7652753  45.6856493  17.0590113  35.2712753  45.8456493
  29.4690113  20.2292753  43.8256493  30.2260113  20.3012753  43.3976493
  29.5320113  19.4562753  44.2246493  29.5900113  20.1262753  43.8206493
  12.0220113  21.5272753  47.7226493  12.0180113  22.1142753  48.3686493
  12.6160113  21.8392753  47.1656493  12.1090113  21.6602753  47.7356493
  25.0050113  19.9542753  34.0686493  25.5450113  19.2722753  34.1446493
  25.0670113  20.3522753  34.8426493  25.0940113  19.9122753  34.1946493
  12.9590113  21.1222753  36.6376493  12.8450113  20.2582753  36.6686493
  12.4840113  21.4162753  37.3076493  12.8720113  21.0382753  36.7406493
  15.1010113  33.5322753  44.8526493  14.4030113  33.0242753  44.9786493
  15.3610113  33.3272753  44.0446493  15.0360113  33.4272753  44.7516493
  22.2630113  22.3302753  35.3826493  21.7550113  21.6682753  35.1286493
  22.3150113  22.8342753  34.6726493  22.1960113  22.3072753  35.2406493
  22.2630113  19.2712753  35.2736493  21.8080113  18.8692753  34.6476493
  23.0360113  19.4262753  34.8986493  22.3100113  19.2352753  35.1256493
  20.8610113  21.6382753  39.7956493  20.9350113  22.2062753  39.1376493
  20.9820113  22.1302753  40.5056493  20.8890113  21.7952753  39.8036493
  16.4620113  32.3832753  47.4196493  17.3030113  32.4462753  47.1976493
  16.4250113  32.7802753  48.1956493  16.5810113  32.4512753  47.5016493
  15.4690113  17.4612753  38.1436493  16.0050113  18.1492753  38.1336493
  15.4720113  17.1872753  37.3156493  15.5480113  17.5222753  38.0196493
  18.4250113  27.8942753  42.1686493  18.5970113  27.6842753  42.9976493
  17.7700113  27.3602753  41.9526493  18.3540113  27.7842753  42.2596493
  24.6530113  21.8082753  45.6836493  24.5580113  22.1272753  46.4896493
  24.0600113  21.1692753  45.6456493  24.5510113  21.7602753  45.7976493
  19.1750113  27.8322753  44.7586493  19.2280113  28.6792753  44.9606493
  18.8900113  27.4622753  45.4956493  19.1410113  27.9022753  44.8966493
  25.9090113  17.7522753  38.5196493  25.9580113  17.4342753  39.3306493
  26.2320113  17.1082753  38.0266493  25.9640113  17.6102753  38.5666493
  11.9960113  32.2032753  50.9696493  12.7520113  32.5522753  51.2276493
  12.1730113  31.3502753  50.9126493  12.1340113  32.1282753  50.9996493
  15.9170113  21.2712753  39.7976493  16.1890113  20.8412753  39.0896493
  15.7410113  20.6352753  40.3686493  15.9310113  21.1142753  39.7776493
  15.7410113  28.6982753  39.3466493  16.5920113  28.6182753  39.1736493
  15.3840113  28.0162753  38.9346493  15.8140113  28.5852753  39.2596493
  14.5080113  35.4232753  40.5836493  13.8350113  34.9252753  40.3386493
  14.9110113  35.6082753  39.8326493  14.4680113  35.3772753  40.4366493
  14.0580113  22.3732753  42.8796493  14.9010113  22.5932753  42.8366493
  13.6690113  22.9462753  42.3486493  14.1250113  22.4902753  42.7946493
  26.5000113  25.5032753  33.6006493  26.2800113  26.2342753  33.1786493
  26.0520113  25.5542753  34.3476493  26.4010113  25.6182753  33.6486493
  18.1090113  28.7052753  37.5816493  18.8220113  29.2002753  37.6716493
  18.3310113  28.1382753  36.9556493  18.2470113  28.6942753  37.5026493
  12.2650113  30.3482753  40.9016493  11.5980113  30.8362753  41.1776493
  12.9450113  30.8932753  40.9306493  12.2670113  30.5002753  40.9466493
  19.9120113  24.0582753  50.9976493  19.4280113  24.6352753  51.4396493
  19.8840113  24.3532753  50.1766493  19.8360113  24.1872753  50.9416493
  12.3310113  27.0322753  36.0046493  12.1460113  26.1932753  36.1566493
  12.9900113  26.9962753  35.4346493  12.4010113  26.9032753  35.9426493
  28.6890113  19.9222753  35.3326493  29.4350113  19.5152753  35.5316493
  28.9520113  20.6372753  34.9076493  28.8380113  19.9682753  35.2996493
  12.5030113  31.1962753  35.5796493  13.0550113  31.7652753  35.9436493
  12.2710113  30.6812753  36.2446493  12.5500113  31.2042753  35.7316493
  16.7070113  30.1962753  42.6686493  17.1740113  30.4852753  43.3466493
  17.2790113  29.7182753  42.2146493  16.8610113  30.1682753  42.7016493
  25.1430113  22.2102753  40.4056493  25.4870113  22.3622753  41.1926493
  24.6900113  21.4722753  40.5186493  25.1270113  22.1232753  40.5386493
  12.3330113  29.6452753  33.2076493  13.0890113  29.2132753  33.2656493
  12.3480113  30.1772753  33.8986493  12.4470113  29.6602753  33.3186493
  13.2730113  27.8662753  41.2126493  13.7040113  27.7372753  40.4656493
  13.0680113  28.7142753  41.1866493  13.3060113  27.9722753  41.0986493
  19.6190113  21.4302753  34.8626493  19.6170113  21.3132753  33.9976493
  19.4380113  22.2782753  34.9546493  19.5920113  21.5382753  34.7486493
  17.3570113  31.3822753  39.4946493  17.4830113  32.2252753  39.6816493
  18.0250113  30.9832753  39.8906493  17.4750113  31.4482753  39.5806493
  15.4870113  24.8652753  49.3566493  14.9510113  24.3592753  49.8246493
  15.5070113  24.4752753  48.5766493  15.4100113  24.7322753  49.3106493
  15.9720113  24.2622753  34.4966493  15.8440113  23.8142753  35.2346493
  15.3900113  23.9202753  33.9446493  15.8670113  24.1452753  34.5246493
  16.1390113  26.0922753  41.0956493  15.3580113  26.0332753  40.7126493
  16.2110113  25.3402753  41.5326493  16.0340113  25.9732753  41.1036493
  16.5690113  25.8292753  44.5636493  16.5940113  25.1542753  44.0126493
  15.9230113  26.3252753  44.2516493  16.4780113  25.8022753  44.4366493
  23.1090113  19.4482753  46.3886493  23.2580113  18.6232753  46.1456493
  23.4880113  19.5032753  47.1726493  23.1870113  19.3342753  46.4686493
  24.6570113  21.5112753  36.4706493  25.1470113  22.2282753  36.3936493
  23.8670113  21.7722753  36.2076493  24.6130113  21.6552753  36.4206493
  14.3680113  27.1842753  50.1226493  14.3310113  27.6852753  49.4086493
  14.6990113  26.4322753  49.8276493  14.4110113  27.1462753  49.9736493
  20.2670113  32.2342753  49.5576493  20.6210113  32.0562753  50.3346493
  19.8310113  31.5052753  49.3586493  20.2550113  32.1002753  49.6436493
  21.2390113  22.9812753  42.1956493  21.7190113  23.6802753  42.4036493
  21.6120113  22.3342753  42.6466493  21.3650113  22.9892753  42.2926493
  18.0210113  18.4922753  34.1306493  18.1180113  18.3852753  34.9916493
  17.3130113  18.9982753  34.0656493  17.9310113  18.5512753  34.2486493
  28.7500113  18.2332753  49.5276493  28.1130113  17.8332753  49.0856493
  28.7760113  17.8022753  50.2856493  28.6600113  18.1112753  49.5736493
  15.1430113  26.7992753  35.3736493  15.4670113  26.0202753  35.1516493
  15.7890113  27.1672753  35.8286493  15.2860113  26.7382753  35.4076493
  12.1400113  18.4602753  36.3416493  12.2690113  17.7522753  35.8496493
  11.7730113  18.1422753  37.0666493  12.1050113  18.3082753  36.3766493
  21.8330113  26.1412753  36.7986493  21.8920113  26.7912753  37.3776493
  21.6440113  25.4452753  37.2896493  21.8140113  26.1342753  36.9566493
  16.3290113  20.6582753  33.3106493  15.8180113  20.7112753  32.6046493
  17.1130113  20.8982753  33.0146493  16.3690113  20.7012753  33.1626493
  21.0560113  28.1882753  41.2296493  20.2090113  27.9942753  41.3106493
  21.3800113  28.0232753  42.0226493  20.9780113  28.1352753  41.3586493
  14.9040113  27.8812753  43.5456493  15.6260113  28.3692753  43.5086493
  14.6340113  27.8512753  42.7166493  14.9710113  27.9492753  43.4176493
  18.1340113  23.0522753  40.2806493  18.9800113  22.8622753  40.3786493
  17.7640113  22.2752753  40.1426493  18.2040113  22.9092753  40.2746493
  12.9550113  24.3902753  36.9356493  13.4440113  24.0982753  37.5966493
  13.0840113  23.7972753  36.3086493  13.0460113  24.2592753  36.9406493
  17.4800113  25.8242753  32.4216493  16.8700113  25.4192753  32.8956493
  17.0940113  25.9422753  31.6486493  17.3330113  25.7812753  32.3776493
  14.2990113  28.9332753  47.8236493  13.8780113  28.4152753  47.2626493
  13.9470113  29.7192753  47.6806493  14.1850113  28.9732753  47.7196493
  18.9350113  24.2852753  35.1316493  19.2070113  25.1112753  35.1986493
  18.0720113  24.3602753  35.0356493  18.8480113  24.4182753  35.1266493
  26.9080113  21.4072753  49.7636493  26.3830113  21.8662753  50.2876493
  26.5470113  20.6122753  49.7576493  26.7770113  21.3572753  49.8396493
  12.4150113  20.2552753  41.6676493  12.4590113  20.5992753  40.8666493
  13.1700113  20.4922753  42.0346493  12.5330113  20.3412753  41.6036493
  27.4640113  23.5532753  39.3936493  26.7190113  23.2302753  39.7116493
  27.4660113  24.3792753  39.6736493  27.3540113  23.6272753  39.4816493
  19.0380113  30.7442753  44.4416493  18.7400113  31.3362753  45.0086493
  19.0930113  31.1862753  43.6926493  19.0020113  30.8972753  44.4146493
  17.0170113  29.6942753  47.8396493  16.2110113  29.4042753  48.0066493
  16.9280113  30.5622753  47.8456493  16.8850113  29.7792753  47.8646493
  26.3760113  19.8832753  46.8546493  27.1200113  20.3352753  46.7916493
  25.8100113  20.3532753  46.3856493  26.4030113  20.0202753  46.7766493
  21.5540113  27.1672753  43.9326493  22.0300113  27.5412753  44.5606493
  20.7310113  27.3012753  44.1916493  21.5030113  27.2422753  44.0636493
  18.2640113  22.7702753  46.6736493  18.4250113  22.0262753  47.1006493
  18.2190113  22.5212753  45.8386493  18.2810113  22.6232753  46.6136493
  27.6610113  17.8632753  44.5246493  27.3810113  18.6882753  44.4806493
  28.3770113  17.9162753  45.0206493  27.7260113  17.9932753  44.5916493
  20.0160113  18.5782753  46.5536493  20.7210113  18.8982753  46.1516493
  20.2570113  17.7712753  46.7806493  20.1550113  18.5062753  46.5276493
  19.0010113  32.7882753  42.5496493  18.3770113  33.3702753  42.3676493
  19.2490113  32.5022753  41.7636493  18.9450113  32.8322753  42.4066493
  20.5950113  27.5642753  32.4646493  19.7900113  27.3872753  32.1796493
  20.5620113  28.4152753  32.6566493  20.4710113  27.6632753  32.4516493
  16.5250113  23.6312753  42.6146493  16.9650113  23.5282753  41.8686493
  17.0700113  23.3182753  43.2196493  16.6700113  23.5702753  42.5936493
  24.5410113  22.7332753  48.2066493  23.8930113  23.2032753  48.5546493
  25.1060113  22.6442753  48.8656493  24.5290113  22.7892753  48.3556493
  26.7770113  23.7172753  36.7566493  26.9840113  23.5162753  37.5806493
  27.5330113  23.9852753  36.4146493  26.9190113  23.7272753  36.8276493
  20.0720113  18.6162753  42.6616493  19.2460113  18.4672753  42.8986493
  20.0320113  18.6512753  41.7906493  19.9440113  18.5992753  42.5676493
  27.7990113  19.8002753  38.2306493  27.0850113  19.3292753  38.4016493
  27.6370113  20.1412753  37.4446493  27.6700113  19.7812753  38.1396493
  12.6370113  19.0142753  48.6966493  12.4970113  19.8092753  48.3656493
  11.8510113  18.7712753  48.9856493  12.5000113  19.0962753  48.6906493
  15.7010113  21.7582753  35.9216493  15.8270113  21.4292753  35.1236493
  14.8890113  21.5092753  36.1206493  15.6000113  21.6732753  35.8336493
  21.9800113  28.1852753  38.5306493  21.6820113  27.8702753  39.2876493
  22.6750113  28.6582753  38.7656493  22.0390113  28.2082753  38.6776493
  14.3070113  35.3612753  48.2086493  13.6530113  34.7922753  48.3066493
  13.9320113  36.1342753  48.3596493  14.1550113  35.3912753  48.2456493
  15.6780113  23.7692753  46.3376493  16.0530113  24.3882753  45.8506493
  16.3520113  23.2952753  46.6226493  15.8330113  23.7912753  46.3076493
  13.4530113  22.2172753  45.6126493  13.5300113  22.0482753  44.7596493
  14.1990113  22.6232753  45.8096493  13.5740113  22.2522753  45.5156493
  29.0120113  24.8572753  36.0526493  29.1150113  24.7992753  35.1886493
  29.7530113  24.5252753  36.3706493  29.1370113  24.8002753  35.9716493
  16.0070113  19.6272753  48.0236493  15.9260113  18.7832753  48.2296493
  15.6930113  19.6712753  47.2106493  15.9490113  19.5092753  47.9336493
  12.8500113  27.4432753  45.8366493  13.1700113  27.6622753  45.0556493
  12.7500113  26.5782753  45.7816493  12.8820113  27.3482753  45.7136493
  14.3060113  23.3792753  32.4546493  13.6340113  23.3932753  33.0106493
  14.4010113  22.5312753  32.2706493  14.2210113  23.2562753  32.5096493
  23.9930113  19.8032753  49.1906493  24.0850113  20.5152753  49.6846493
  23.3560113  19.3582753  49.5876493  23.9120113  19.8422753  49.3226493
  22.9870113  19.9932753  40.0446493  22.2870113  20.5112753  39.9886493
  23.0250113  19.6132753  39.2606493  22.8890113  20.0142753  39.9206493
  18.2940113  32.0842753  33.5686493  18.7350113  32.1642753  34.3166493
  17.4890113  31.8682753  33.8266493  18.2400113  32.0642753  33.7176493
  26.5850113  20.5092753  42.8446493  27.4400113  20.6082753  42.9896493
  26.2160113  21.0622753  43.4096493  26.6570113  20.6062753  42.9496493
  17.6130113  26.7352753  47.2216493  17.2170113  27.5092753  47.2966493
  17.2070113  26.3622753  46.5456493  17.4950113  26.7942753  47.1326493
  15.6230113  31.1542753  34.1696493  15.3790113  30.8472753  34.9496493
  15.5900113  30.4512753  33.6536493  15.5820113  31.0052753  34.2086493
  18.4420113  29.3992753  32.9126493  17.6240113  29.1312753  33.0526493
  18.4140113  30.2512753  33.0976493  18.3170113  29.4862753  32.9606493
  18.0420113  19.7122753  44.6716493  17.1780113  19.7962753  44.7516493
  18.2620113  19.1982753  45.3406493  17.9470113  19.6492753  44.7826493
  30.0600113  18.3472753  46.0006493  30.0080113  18.3032753  46.8706493
  30.7470113  17.8442753  45.8106493  30.1540113  18.2672753  46.1006493
  22.1450113  20.4602753  43.0456493  21.4080113  20.0062753  43.1586493
  22.7160113  20.0582753  43.5686493  22.1200113  20.3332753  43.1396493
  19.6480113  24.7892753  48.2496493  19.3260113  24.2132753  47.6796493
  19.2890113  25.5442753  48.0036493  19.5480113  24.8152753  48.1296493
  20.4440113  18.0412753  32.8766493  20.5220113  18.2882753  32.0436493
  19.7010113  18.4182753  33.1346493  20.3460113  18.1332753  32.7916493
  15.2620113  19.7952753  45.3196493  14.9190113  19.0282753  45.0856493
  14.5670113  20.3192753  45.3836493  15.1090113  19.7592753  45.2946493
  24.3080113  18.6512753  42.2966493  24.9780113  19.1952753  42.4236493
  23.8050113  19.0752753  41.7236493  24.3330113  18.7942753  42.2306493
  15.6760113  33.5282753  49.8576493  16.2710113  33.9592753  50.3296493
  15.3120113  34.1522753  49.3686493  15.7100113  33.6842753  49.8546493
  23.6670113  24.4592753  39.7896493  24.2180113  23.8522753  40.0896493
  23.2420113  24.7222753  40.5046493  23.6860113  24.4082753  39.9386493
  13.9150113  23.1092753  39.2756493  13.5470113  23.4112753  40.0066493
  14.4490113  22.4802753  39.5596493  13.9390113  23.0612753  39.4256493
  13.6030113  31.5172753  46.7866493  13.0290113  31.9332753  47.2956493
  14.3360113  31.9822753  46.8816493  13.6270113  31.6472753  46.8756493
  19.5560113  27.1812753  35.2896493  19.6560113  27.3202753  34.4346493
  20.3740113  27.1212753  35.5856493  19.6910113  27.1922753  35.2066493
  29.5360113  22.2272753  50.2406493  29.3400113  22.8712753  50.7956493
  28.8140113  21.7372753  50.2326493  29.4010113  22.2502753  50.3216493
  18.6950113  20.1562753  48.4056493  18.9290113  19.5802753  47.7926493
  17.8530113  19.9752753  48.5466493  18.6050113  20.0442753  48.3356493
  16.0760113  33.5992753  42.0386493  15.9970113  32.7892753  41.7226493
  15.6320113  34.0862753  41.4666493  15.9990113  33.5512753  41.9076493
  13.6480113  35.8432753  45.6196493  14.1410113  35.7872753  46.3376493
  13.8360113  35.1102753  45.1846493  13.7490113  35.7262753  45.6616493
  23.0860113  18.3592753  18.7604083  22.8410113  18.8472753  18.0804083
  23.9490113  18.2862753  18.6604083  23.1770113  18.4202753  18.6454083
  22.8950113  25.2752753  23.4314083  22.3710113  25.8712753  23.7944083
  23.2920113  24.9072753  24.1154083  22.8760113  25.3092753  23.5864083
  12.7640113  29.4152753  18.8874083  12.3230113  29.5332753  19.6304083
  12.4810113  28.6402753  18.6024083  12.6570113  29.3182753  18.9554083
  29.0390113  32.7162753  16.4024083  29.7400113  32.1972753  16.3984083
  28.4520113  32.2712753  15.9334083  29.0560113  32.5732753  16.3324083
  12.5070113  23.2072753  15.3944083  11.7290113  23.3692753  15.0344083
  12.5460113  22.3362753  15.4164083  12.3980113  23.1022753  15.3444083
  15.6460113  28.4702753  14.0664083  15.2540113  28.0992753  13.3804083
  15.5660113  27.8722753  14.6954083  15.5760113  28.3272753  14.0574083
  25.5660113  26.3422753  20.1074083  25.6460113  26.3462753  19.2384083
  24.9820113  25.7102753  20.2564083  25.4910113  26.2492753  20.0014083
  15.2730113  30.1112753  17.9664083  15.8810113  29.9412753  18.5694083
  14.5220113  29.9712753  18.3874083  15.2520113  30.0652753  18.1174083
  19.5550113  19.4462753  17.9154083  19.4850113  20.1232753  17.3694083
  20.2960113  19.0582753  17.6664083  19.6540113  19.4892753  17.7974083
  14.1640113  33.2022753  14.0434083  14.6310113  33.2862753  13.3114083
  14.6190113  32.6242753  14.5124083  14.3000113  33.1292753  14.0044083
  12.7040113  32.1502753  25.1424083  12.8330113  31.8702753  25.9584083
  12.0940113  31.6092753  24.8334083  12.6330113  32.0292753  25.2174083
  19.2780113  29.6752753  30.2094083  19.0420113  29.6722753  31.0494083
  18.5300113  29.5272753  29.7854083  19.1320113  29.6522753  30.2704083
  14.1500113  26.6712753  19.3444083  13.6880113  26.2792753  18.7174083
  14.8500113  26.1582753  19.4364083  14.1850113  26.5382753  19.2654083
  18.6580113  22.2812753  24.6914083  19.3360113  22.2992753  24.1424083
  18.6130113  21.4452753  24.9364083  18.7510113  22.1602753  24.6464083
  19.2600113  32.8672753  27.4724083  19.3980113  33.6272753  27.0654083
  20.0510113  32.5022753  27.4994083  19.3970113  32.9262753  27.4164083
  16.1510113  24.7712753  19.3674083  16.9680113  24.5842753  19.6104083
  15.6740113  24.1572753  19.7634083  16.2010113  24.6532753  19.4624083
  20.3550113  30.7522753  21.9774083  20.7030113  29.9532753  22.0074083
  21.0200113  31.2562753  21.7224083  20.5050113  30.7082753  21.9444083
  20.4120113  30.2012753  18.1884083  20.7430113  29.5572753  18.6744083
  20.6520113  29.9902753  17.3774083  20.4960113  30.0752753  18.1404083
  22.3800113  24.3322753  29.5274083  21.5320113  24.2332753  29.3494083
  22.4090113  25.0772753  29.9814083  22.2590113  24.4282753  29.5684083
  16.7480113  19.8652753  18.6334083  16.4520113  20.3662753  17.9834083
  17.6150113  19.9432753  18.5764083  16.8320113  19.9512753  18.5294083
  26.9380113  17.2922753  28.6414083  26.7800113  18.0612753  28.2594083
  26.1660113  17.0722753  28.9854083  26.8000113  17.3732753  28.6364083
  19.7270113  19.0072753  20.8564083  19.8000113  19.8672753  20.9854083
  19.6890113  18.9322753  19.9884083  19.7320113  19.1232753  20.7474083
  24.4000113  21.9332753  13.1554083  23.9500113  22.6142753  13.4624083
  24.5140113  21.4292753  13.8584083  24.3510113  21.9592753  13.3044083
  12.6060113  24.4322753  22.3574083  12.3500113  25.2632753  22.2824083
  11.9420113  24.0492753  22.7744083  12.4700113  24.4982753  22.4084083
  12.5160113  34.1422753  20.2574083  11.9240113  34.7002753  19.9444083
  12.9420113  33.8732753  19.5454083  12.4920113  34.1842753  20.1064083
  18.3560113  31.9862753  17.7374083  17.7770113  31.7112753  18.3294083
  18.9800113  31.3772753  17.7624083  18.3630113  31.8562753  17.8284083
  24.4990113  34.2742753  15.2594083  25.2260113  34.7462753  15.3614083
  24.7280113  33.4802753  15.5394083  24.6410113  34.2272753  15.3164083
  22.6670113  34.6662753  17.2494083  22.8810113  35.1932753  17.9114083
  23.4340113  34.4922753  16.8704083  22.8120113  34.7182753  17.2914083
  15.6350113  19.2492753  22.8484083  15.1140113  18.6212753  22.5404083
  16.2260113  18.8122753  23.3194083  15.6460113  19.0912753  22.8724083
  18.9410113  21.3822753  32.1464083  19.0580113  20.9282753  31.4104083
  19.2290113  22.1802753  31.9434083  19.0010113  21.4332753  32.0074083
  14.0610113  32.8122753  18.1884083  14.7170113  32.2372753  18.2034083
  14.4500113  33.5612753  17.9674083  14.2160113  32.8372753  18.1584083
  29.7940113  21.9062753  19.4504083  29.4480113  22.5842753  19.8764083
  29.1580113  21.3082753  19.4664083  29.6490113  21.9182753  19.5154083
  14.6740113  20.9792753  31.1304083  13.8960113  20.5892753  31.0584083
  15.1650113  20.5672753  30.5394083  14.6310113  20.8602753  31.0324083
  14.8790113  31.2992753  21.6884083  15.3020113  30.9432753  21.0144083
  15.2030113  30.8772753  22.3804083  14.9890113  31.1842753  21.6914083
  18.1100113  34.1512753  20.9844083  18.9540113  34.2552753  20.7894083
  17.8130113  34.9692753  21.0524083  18.1910113  34.2872753  20.9654083
  21.3230113  18.6222753  30.2984083  21.5010113  17.8132753  30.0234083
  21.1800113  19.0632753  29.5594083  21.3280113  18.5682753  30.1484083
  21.9170113  23.5482753  19.0714083  22.2040113  23.3162753  18.2814083
  22.6490113  23.6272753  19.5404083  22.0670113  23.5252753  19.0244083
  22.6390113  23.8872753  14.1924083  22.9200113  24.6752753  14.4414083
  21.8630113  24.0522753  13.8294083  22.5660113  24.0282753  14.1754083
  26.6800113  35.8612753  15.6594083  27.3450113  35.7132753  15.1144083
  27.0400113  35.7782753  16.4494083  26.8320113  35.8272753  15.6954083
  17.1080113  35.3702753  26.7244083  17.4000113  35.3032753  27.5444083
  16.4820113  34.7652753  26.6794083  17.0590113  35.2712753  26.8394083
  29.4690113  20.2292753  24.8194083  30.2260113  20.3012753  24.3914083
  29.5320113  19.4562753  25.2184083  29.5900113  20.1262753  24.8144083
  12.0220113  21.5272753  28.7164083  12.0180113  22.1142753  29.3624083
  12.6160113  21.8392753  28.1594083  12.1090113  21.6602753  28.7294083
  21.4980113  32.0582753  14.0084083  21.3170113  32.6032753  14.6654083
  22.2640113  32.3482753  13.7074083  21.5840113  32.1822753  14.0614083
  25.0050113  19.9542753  15.0624083  25.5450113  19.2722753  15.1384083
  25.0670113  20.3522753  15.8364083  25.0940113  19.9122753  15.1884083
  12.9590113  21.1222753  17.6314083  12.8450113  20.2582753  17.6624083
  12.4840113  21.4162753  18.3014083  12.8720113  21.0382753  17.7344083
  15.1010113  33.5322753  25.8464083  14.4030113  33.0242753  25.9724083
  15.3610113  33.3272753  25.0384083  15.0360113  33.4272753  25.7454083
  22.2630113  22.3302753  16.3764083  21.7550113  21.6682753  16.1224083
  22.3150113  22.8342753  15.6664083  22.1960113  22.3072753  16.2344083
  22.2630113  19.2712753  16.2674083  21.8080113  18.8692753  15.6414083
  23.0360113  19.4262753  15.8924083  22.3100113  19.2352753  16.1194083
  29.0890113  35.6282753  19.6574083  28.6340113  36.3452753  19.8584083
  28.4750113  35.0572753  19.4154083  28.9310113  35.6502753  19.6514083
  20.8610113  21.6382753  20.7894083  20.9350113  22.2062753  20.1314083
  20.9820113  22.1302753  21.4994083  20.8890113  21.7952753  20.7974083
  26.0860113  31.4732753  19.2014083  26.7870113  30.9912753  19.3904083
  25.4260113  30.9042753  19.2464083  26.0920113  31.3182753  19.2354083
  16.4620113  32.3832753  28.4134083  17.3030113  32.4462753  28.1914083
  16.4250113  32.7802753  29.1894083  16.5810113  32.4512753  28.4954083
  15.4690113  17.4612753  19.1374083  16.0050113  18.1492753  19.1274083
  15.4720113  17.1872753  18.3094083  15.5480113  17.5222753  19.0134083
  18.4250113  27.8942753  23.1624083  18.5970113  27.6842753  23.9914083
  17.7700113  27.3602753  22.9464083  18.3540113  27.7842753  23.2534083
  24.6530113  21.8082753  26.6774083  24.5580113  22.1272753  27.4834083
  24.0600113  21.1692753  26.6394083  24.5510113  21.7602753  26.7914083
  19.1750113  27.8322753  25.7524083  19.2280113  28.6792753  25.9544083
  18.8900113  27.4622753  26.4894083  19.1410113  27.9022753  25.8904083
  25.3520113  28.5272753  24.8824083  24.8380113  28.1152753  25.4534083
  25.2260113  29.3712753  25.0634083  25.2580113  28.5912753  24.9934083
  25.9090113  17.7522753  19.5134083  25.9580113  17.4342753  20.3244083
  26.2320113  17.1082753  19.0204083  25.9640113  17.6102753  19.5604083
  11.9960113  32.2032753  31.9634083  12.7520113  32.5522753  32.2214083
  12.1730113  31.3502753  31.9064083  12.1340113  32.1282753  31.9934083
  15.9170113  21.2712753  20.7914083  16.1890113  20.8412753  20.0834083
  15.7410113  20.6352753  21.3624083  15.9310113  21.1142753  20.7714083
  28.6050113  28.9662753  15.0094083  28.7240113  28.6792753  15.8244083
  29.4120113  28.9872753  14.6794083  28.7410113  28.9272753  15.0814083
  15.7410113  28.6982753  20.3404083  16.5920113  28.6182753  20.1674083
  15.3840113  28.0162753  19.9284083  15.8140113  28.5852753  20.2534083
  14.5080113  35.4232753  21.5774083  13.8350113  34.9252753  21.3324083
  14.9110113  35.6082753  20.8264083  14.4680113  35.3772753  21.4304083
  14.0580113  22.3732753  23.8734083  14.9010113  22.5932753  23.8304083
  13.6690113  22.9462753  23.3424083  14.1250113  22.4902753  23.7884083
  26.5000113  25.5032753  14.5944083  26.2800113  26.2342753  14.1724083
  26.0520113  25.5542753  15.3414083  26.4010113  25.6182753  14.6424083
  18.1090113  28.7052753  18.5754083  18.8220113  29.2002753  18.6654083
  18.3310113  28.1382753  17.9494083  18.2470113  28.6942753  18.4964083
  30.6870113  20.3642753  14.0474083  30.0250113  19.7962753  14.0704083
  30.4940113  20.8762753  13.3674083  30.5610113  20.3562753  13.9504083
  12.2650113  30.3482753  21.8954083  11.5980113  30.8362753  22.1714083
  12.9450113  30.8932753  21.9244083  12.2670113  30.5002753  21.9404083
  19.9120113  24.0582753  31.9914083  19.4280113  24.6352753  32.4334083
  19.8840113  24.3532753  31.1704083  19.8360113  24.1872753  31.9354083
  12.3310113  27.0322753  16.9984083  12.1460113  26.1932753  17.1504083
  12.9900113  26.9962753  16.4284083  12.4010113  26.9032753  16.9364083
  28.6890113  19.9222753  16.3264083  29.4350113  19.5152753  16.5254083
  28.9520113  20.6372753  15.9014083  28.8380113  19.9682753  16.2934083
  22.6320113  32.4082753  20.9024083  22.1090113  33.0422753  20.6094083
  22.9420113  32.0442753  20.1734083  22.6000113  32.4482753  20.7514083
  12.5030113  31.1962753  16.5734083  13.0550113  31.7652753  16.9374083
  12.2710113  30.6812753  17.2384083  12.5500113  31.2042753  16.7254083
  16.7070113  30.1962753  23.6624083  17.1740113  30.4852753  24.3404083
  17.2790113  29.7182753  23.2084083  16.8610113  30.1682753  23.6954083
  25.1430113  22.2102753  21.3994083  25.4870113  22.3622753  22.1864083
  24.6900113  21.4722753  21.5124083  25.1270113  22.1232753  21.5324083
  12.3330113  29.6452753  14.2014083  13.0890113  29.2132753  14.2594083
  12.3480113  30.1772753  14.8924083  12.4470113  29.6602753  14.3124083
  13.2730113  27.8662753  22.2064083  13.7040113  27.7372753  21.4594083
  13.0680113  28.7142753  22.1804083  13.3060113  27.9722753  22.0924083
  19.6190113  21.4302753  15.8564083  19.6170113  21.3132753  14.9914083
  19.4380113  22.2782753  15.9484083  19.5920113  21.5382753  15.7424083
  17.3570113  31.3822753  20.4884083  17.4830113  32.2252753  20.6754083
  18.0250113  30.9832753  20.8844083  17.4750113  31.4482753  20.5744083
  15.4870113  24.8652753  30.3504083  14.9510113  24.3592753  30.8184083
  15.5070113  24.4752753  29.5704083  15.4100113  24.7322753  30.3044083
  15.9720113  24.2622753  15.4904083  15.8440113  23.8142753  16.2284083
  15.3900113  23.9202753  14.9384083  15.8670113  24.1452753  15.5184083
  16.1390113  26.0922753  22.0894083  15.3580113  26.0332753  21.7064083
  16.2110113  25.3402753  22.5264083  16.0340113  25.9732753  22.0974083
  16.5690113  25.8292753  25.5574083  16.5940113  25.1542753  25.0064083
  15.9230113  26.3252753  25.2454083  16.4780113  25.8022753  25.4304083
  26.4640113  23.5422753  23.9534083  25.8020113  23.8702753  24.4164083
  26.6510113  24.1762753  23.3844083  26.3940113  23.6842753  23.9374083
  20.6690113  34.6062753  24.9494083  20.3920113  33.9652753  24.4264083
  20.4610113  35.3322753  24.5114083  20.5980113  34.6192753  24.8074083
  23.1090113  19.4482753  27.3824083  23.2580113  18.6232753  27.1394083
  23.4880113  19.5032753  28.1664083  23.1870113  19.3342753  27.4624083
  24.6570113  21.5112753  17.4644083  25.1470113  22.2282753  17.3874083
  23.8670113  21.7722753  17.2014083  24.6130113  21.6552753  17.4144083
  14.3680113  27.1842753  31.1164083  14.3310113  27.6852753  30.4024083
  14.6990113  26.4322753  30.8214083  14.4110113  27.1462753  30.9674083
  20.2670113  32.2342753  30.5514083  20.6210113  32.0562753  31.3284083
  19.8310113  31.5052753  30.3524083  20.2550113  32.1002753  30.6374083
  21.2390113  22.9812753  23.1894083  21.7190113  23.6802753  23.3974083
  21.6120113  22.3342753  23.6404083  21.3650113  22.9892753  23.2864083
  23.4280113  26.1502753  15.4634083  23.4200113  26.8722753  14.9734083
  22.7890113  26.2852753  16.0404083  23.3330113  26.2772753  15.4764083
  28.4000113  30.0202753  19.4444083  28.7560113  29.6702753  20.1594083
  28.3920113  29.3592753  18.8744083  28.4520113  29.8702753  19.4654083
  24.4450113  33.0862753  23.2884083  23.8420113  32.7902753  22.7314083
  24.9900113  33.5382753  22.7794083  24.4360113  33.1092753  23.1304083
  24.4580113  29.9372753  22.6884083  23.6610113  30.1612753  22.9624083
  24.7160113  29.3432753  23.2734083  24.3780113  29.8822753  22.8154083
  18.3500113  34.7492753  17.1364083  18.2030113  33.9732753  17.5074083
  19.0390113  34.6022753  16.6214083  18.4300113  34.6122753  17.1154083
  18.0210113  18.4922753  15.1244083  18.1180113  18.3852753  15.9854083
  17.3130113  18.9982753  15.0594083  17.9310113  18.5512753  15.2424083
  20.6420113  34.2652753  15.5384083  21.2640113  34.4282753  16.1284083
  20.6780113  34.9562753  15.0064083  20.7390113  34.3912753  15.5474083
  28.7500113  18.2332753  30.5214083  28.1130113  17.8332753  30.0794083
  28.7760113  17.8022753  31.2794083  28.6600113  18.1112753  30.5674083
  15.1430113  26.7992753  16.3674083  15.4670113  26.0202753  16.1454083
  15.7890113  27.1672753  16.8224083  15.2860113  26.7382753  16.4014083
  23.4490113  27.7412753  27.1344083  23.2940113  28.3512753  27.7384083
  23.9830113  27.1832753  27.5404083  23.5050113  27.7492753  27.2834083
  12.1400113  18.4602753  17.3354083  12.2690113  17.7522753  16.8434083
  11.7730113  18.1422753  18.0604083  12.1050113  18.3082753  17.3704083
  21.8330113  26.1412753  17.7924083  21.8920113  26.7912753  18.3714083
  21.6440113  25.4452753  18.2834083  21.8140113  26.1342753  17.9504083
  27.0590113  30.4702753  23.6614083  26.5800113  30.7682753  22.9954083
  26.7030113  29.6942753  23.8394083  26.9360113  30.3992753  23.5894083
  16.3290113  20.6582753  14.3044083  15.8180113  20.7112753  13.5984083
  17.1130113  20.8982753  14.0084083  16.3690113  20.7012753  14.1564083
  21.0560113  28.1882753  22.2234083  20.2090113  27.9942753  22.3044083
  21.3800113  28.0232753  23.0164083  20.9780113  28.1352753  22.3524083
  17.8080113  34.9182753  13.1094083  18.2470113  34.2212753  13.3974083
  18.0150113  35.5422753  13.6824083  17.9040113  34.9072753  13.2364083
  14.9040113  27.8812753  24.5394083  15.6260113  28.3692753  24.5024083
  14.6340113  27.8512753  23.7104083  14.9710113  27.9492753  24.4114083
  18.1340113  23.0522753  21.2744083  18.9800113  22.8622753  21.3724083
  17.7640113  22.2752753  21.1364083  18.2040113  22.9092753  21.2684083
  30.7510113  34.6362753  15.6014083  31.4450113  34.1692753  15.3534083
  30.2120113  34.0382753  15.9384083  30.7740113  34.4782753  15.6144083
  12.9550113  24.3902753  17.9294083  13.4440113  24.0982753  18.5904083
  13.0840113  23.7972753  17.3024083  13.0460113  24.2592753  17.9344083
  17.4800113  25.8242753  13.4154083  16.8700113  25.4192753  13.8894083
  17.0940113  25.9422753  12.6424083  17.3330113  25.7812753  13.3714083
  14.2990113  28.9332753  28.8174083  13.8780113  28.4152753  28.2564083
  13.9470113  29.7192753  28.6744083  14.1850113  28.9732753  28.7134083
  29.2460113  27.4832753  22.2174083  28.9600113  27.8842753  22.9374083
  30.1060113  27.4212753  22.3444083  29.3310113  27.5332753  22.3424083
  18.9350113  24.2852753  16.1254083  19.2070113  25.1112753  16.1924083
  18.0720113  24.3602753  16.0294083  18.8480113  24.4182753  16.1204083
  12.4150113  20.2552753  22.6614083  12.4590113  20.5992753  21.8604083
  13.1700113  20.4922753  23.0284083  12.5330113  20.3412753  22.5974083
  30.3770113  33.1162753  22.7464083  30.6670113  33.3732753  21.9654083
  31.0720113  33.2122753  23.2654083  30.5230113  33.1682753  22.7074083
  26.9820113  31.7192753  14.7284083  27.3160113  30.9132753  14.7634083
  26.2270113  31.6472753  15.1584083  26.9200113  31.5892753  14.7974083
  27.4640113  23.5532753  20.3874083  26.7190113  23.2302753  20.7054083
  27.4660113  24.3792753  20.6674083  27.3540113  23.6272753  20.4754083
  24.3560113  29.5942753  14.1314083  25.0400113  29.0802753  13.9624083
  23.9390113  29.6402753  13.3664083  24.3950113  29.5252753  13.9934083
  19.0380113  30.7442753  25.4354083  18.7400113  31.3362753  26.0024083
  19.0930113  31.1862753  24.6864083  19.0020113  30.8972753  25.4084083
  17.0170113  29.6942753  28.8334083  16.2110113  29.4042753  29.0004083
  16.9280113  30.5622753  28.8394083  16.8850113  29.7792753  28.8584083
  26.3760113  19.8832753  27.8484083  27.1200113  20.3352753  27.7854083
  25.8100113  20.3532753  27.3794083  26.4030113  20.0202753  27.7704083
  21.5540113  27.1672753  24.9264083  22.0300113  27.5412753  25.5544083
  20.7310113  27.3012753  25.1854083  21.5030113  27.2422753  25.0574083
  18.2640113  22.7702753  27.6674083  18.4250113  22.0262753  28.0944083
  18.2190113  22.5212753  26.8324083  18.2810113  22.6232753  27.6074083
  20.8180113  34.5602753  20.1544083  21.3640113  35.2392753  20.2084083
  20.4680113  34.6422753  19.3594083  20.8470113  34.6732753  20.0444083
  27.6610113  17.8632753  25.5184083  27.3810113  18.6882753  25.4744083
  28.3770113  17.9162753  26.0144083  27.7260113  17.9932753  25.5854083
  20.0160113  18.5782753  27.5474083  20.7210113  18.8982753  27.1454083
  20.2570113  17.7712753  27.7744083  20.1550113  18.5062753  27.5214083
  19.0010113  32.7882753  23.5434083  18.3770113  33.3702753  23.3614083
  19.2490113  32.5022753  22.7574083  18.9450113  32.8322753  23.4004083
  23.3100113  29.4222753  30.5324083  24.0670113  29.7082753  30.2064083
  22.7630113  29.4742753  29.8544083  23.3410113  29.4722753  30.3834083
  29.0820113  24.1182753  14.3754083  29.4600113  24.7952753  13.9754083
  28.2400113  24.3422753  14.4064083  29.0130113  24.2512753  14.3204083
  20.5950113  27.5642753  13.4584083  19.7900113  27.3872753  13.1734083
  20.5620113  28.4152753  13.6504083  20.4710113  27.6632753  13.4454083
  16.5250113  23.6312753  23.6084083  16.9650113  23.5282753  22.8624083
  17.0700113  23.3182753  24.2134083  16.6700113  23.5702753  23.5874083
  24.5410113  22.7332753  29.2004083  23.8930113  23.2032753  29.5484083
  25.1060113  22.6442753  29.8594083  24.5290113  22.7892753  29.3494083
  24.2290113  24.2702753  25.4984083  24.5310113  24.6902753  26.2014083
  24.2650113  23.4302753  25.7304083  24.2790113  24.2082753  25.6364083
  26.7770113  23.7172753  17.7504083  26.9840113  23.5162753  18.5744083
  27.5330113  23.9852753  17.4084083  26.9190113  23.7272753  17.8214083
  20.0720113  18.6162753  23.6554083  19.2460113  18.4672753  23.8924083
  20.0320113  18.6512753  22.7844083  19.9440113  18.5992753  23.5614083
  27.7990113  19.8002753  19.2244083  27.0850113  19.3292753  19.3954083
  27.6370113  20.1412753  18.4384083  27.6700113  19.7812753  19.1334083
  28.2420113  27.7442753  17.6044083  28.7180113  27.0152753  17.5564083
  27.4210113  27.4582753  17.5284083  28.1910113  27.5942753  17.5854083
  21.7130113  29.6562753  28.4434083  20.9180113  29.5922753  28.7944083
  21.7840113  30.5032753  28.2484083  21.6060113  29.7712753  28.4664083
  12.6370113  19.0142753  29.6904083  12.4970113  19.8092753  29.3594083
  11.8510113  18.7712753  29.9794083  12.5000113  19.0962753  29.6844083
  17.5430113  35.8632753  23.7604083  17.5540113  35.9222753  24.6304083
  17.1180113  35.1162753  23.6104083  17.4820113  35.7612753  23.8664083
  15.7010113  21.7582753  16.9154083  15.8270113  21.4292753  16.1174083
  14.8890113  21.5092753  17.1144083  15.6000113  21.6732753  16.8274083
  24.4580113  28.9112753  19.9594083  24.5340113  29.2522753  20.7584083
  24.6270113  28.0642753  20.0804083  24.4940113  28.8362753  20.0954083
  21.9800113  28.1852753  19.5244083  21.6820113  27.8702753  20.2814083
  22.6750113  28.6582753  19.7594083  22.0390113  28.2082753  19.6714083
  22.2020113  32.3032753  27.5514083  22.8890113  32.1892753  28.0764083
  22.3360113  33.0942753  27.2074083  22.3230113  32.4032753  27.5784083
  14.3070113  35.3612753  29.2024083  13.6530113  34.7922753  29.3004083
  13.9320113  36.1342753  29.3534083  14.1550113  35.3912753  29.2394083
  22.8250113  26.7672753  31.1254083  23.1480113  27.4532753  30.6934083
  22.1210113  27.0902753  31.5274083  22.7680113  26.9162753  31.1204083
  25.9090113  35.1412753  22.0544083  25.4580113  35.7842753  22.4334083
  26.6170113  35.0622753  22.5594083  25.9470113  35.2242753  22.1854083
  22.6100113  30.2312753  24.9844083  21.9160113  30.6332753  25.3274083
  23.2870113  30.6642753  25.3234083  22.6070113  30.3542753  25.0854083
  15.6780113  23.7692753  27.3314083  16.0530113  24.3882753  26.8444083
  16.3520113  23.2952753  27.6164083  15.8330113  23.7912753  27.3014083
  13.4530113  22.2172753  26.6064083  13.5300113  22.0482753  25.7534083
  14.1990113  22.6232753  26.8034083  13.5740113  22.2522753  26.5094083
  29.0120113  24.8572753  17.0464083  29.1150113  24.7992753  16.1824083
  29.7530113  24.5252753  17.3644083  29.1370113  24.8002753  16.9654083
  16.0070113  19.6272753  29.0174083  15.9260113  18.7832753  29.2234083
  15.6930113  19.6712753  28.2044083  15.9490113  19.5092753  28.9274083
  22.9320113  31.8222753  18.1534083  22.7270113  32.6552753  17.9944083
  22.1570113  31.4402753  18.2754083  22.7870113  31.8892753  18.1484083
  12.8500113  27.4432753  26.8304083  13.1700113  27.6622753  26.0494083
  12.7500113  26.5782753  26.7754083  12.8820113  27.3482753  26.7074083
  14.3060113  23.3792753  13.4484083  13.6340113  23.3932753  14.0044083
  14.4010113  22.5312753  13.2644083  14.2210113  23.2562753  13.5034083
  23.9930113  19.8032753  30.1844083  24.0850113  20.5152753  30.6784083
  23.3560113  19.3582753  30.5814083  23.9120113  19.8422753  30.3164083
  22.9870113  19.9932753  21.0384083  22.2870113  20.5112753  20.9824083
  23.0250113  19.6132753  20.2544083  22.8890113  20.0142753  20.9144083
  18.2940113  32.0842753  14.5624083  18.7350113  32.1642753  15.3104083
  17.4890113  31.8682753  14.8204083  18.2400113  32.0642753  14.7114083
  26.5850113  20.5092753  23.8384083  27.4400113  20.6082753  23.9834083
  26.2160113  21.0622753  24.4034083  26.6570113  20.6062753  23.9434083
  17.6130113  26.7352753  28.2154083  17.2170113  27.5092753  28.2904083
  17.2070113  26.3622753  27.5394083  17.4950113  26.7942753  28.1264083
  26.8890113  25.7892753  22.3294083  27.5550113  26.3302753  22.4894083
  26.5440113  26.1002753  21.5904083  26.9360113  25.9152753  22.2444083
  27.2020113  33.8552753  18.1364083  27.0280113  33.2012753  18.6864083
  27.9150113  33.5842753  17.7134083  27.2820113  33.7182753  18.1554083
  15.6230113  31.1542753  15.1634083  15.3790113  30.8472753  15.9434083
  15.5900113  30.4512753  14.6474083  15.5820113  31.0052753  15.2024083
  18.4420113  29.3992753  13.9064083  17.6240113  29.1312753  14.0464083
  18.4140113  30.2512753  14.0914083  18.3170113  29.4862753  13.9544083
  18.0420113  19.7122753  25.6654083  17.1780113  19.7962753  25.7454083
  18.2620113  19.1982753  26.3344083  17.9470113  19.6492753  25.7764083
  30.0600113  18.3472753  26.9944083  30.0080113  18.3032753  27.8644083
  30.7470113  17.8442753  26.8044083  30.1540113  18.2672753  27.0944083
  22.1450113  20.4602753  24.0394083  21.4080113  20.0062753  24.1524083
  22.7160113  20.0582753  24.5624083  22.1200113  20.3332753  24.1334083
  19.6480113  24.7892753  29.2434083  19.3260113  24.2132753  28.6734083
  19.2890113  25.5442753  28.9974083  19.5480113  24.8152753  29.1234083
  20.4440113  18.0412753  13.8704083  20.5220113  18.2882753  13.0374083
  19.7010113  18.4182753  14.1284083  20.3460113  18.1332753  13.7854083
  15.2620113  19.7952753  26.3134083  14.9190113  19.0282753  26.0794083
  14.5670113  20.3192753  26.3774083  15.1090113  19.7592753  26.2884083
  24.3080113  18.6512753  23.2904083  24.9780113  19.1952753  23.4174083
  23.8050113  19.0752753  22.7174083  24.3330113  18.7942753  23.2244083
  15.6760113  33.5282753  30.8514083  16.2710113  33.9592753  31.3234083
  15.3120113  34.1522753  30.3624083  15.7100113  33.6842753  30.8484083
  23.6670113  24.4592753  20.7834083  24.2180113  23.8522753  21.0834083
  23.2420113  24.7222753  21.4984083  23.6860113  24.4082753  20.9324083
  13.9150113  23.1092753  20.2694083  13.5470113  23.4112753  21.0004083
  14.4490113  22.4802753  20.5534083  13.9390113  23.0612753  20.4194083
  13.6030113  31.5172753  27.7804083  13.0290113  31.9332753  28.2894083
  14.3360113  31.9822753  27.8754083  13.6270113  31.6472753  27.8694083
  25.6370113  26.2902753  17.3454083  25.7050113  25.4402753  17.5264083
  24.8140113  26.3762753  17.0674083  25.5250113  26.1772753  17.3314083
  15.3890113  34.7842753  16.5554083  15.2440113  34.9402753  15.7094083
  16.2550113  34.8632753  16.6334083  15.4960113  34.8192753  16.4424083
  19.5560113  27.1812753  16.2834083  19.6560113  27.3202753  15.4284083
  20.3740113  27.1212753  16.5794083  19.6910113  27.1922753  16.2004083
  28.7160113  35.2452753  13.7634083  29.3530113  35.1112753  14.3444083
  28.3750113  34.4512753  13.6464083  28.7600113  35.1082753  13.8314083
  24.7910113  31.5102753  16.0854083  24.5400113  31.3822753  16.9114083
  24.4740113  30.8152753  15.6644083  24.7070113  31.3892753  16.1454083
  29.4350113  23.1682753  24.2054083  28.6020113  23.4182753  24.1334083
  29.3790113  22.3282753  24.4344083  29.3040113  23.0812753  24.2284083
  18.6950113  20.1562753  29.3994083  18.9290113  19.5802753  28.7864083
  17.8530113  19.9752753  29.5404083  18.6050113  20.0442753  29.3294083
  16.0760113  33.5992753  23.0324083  15.9970113  32.7892753  22.7164083
  15.6320113  34.0862753  22.4604083  15.9990113  33.5512753  22.9014083
  21.6770113  29.7182753  15.5154083  22.3940113  29.3712753  15.1594083
  21.6430113  30.5182753  15.1674083  21.7780113  29.7852753  15.4114083
  13.6480113  35.8432753  26.6134083  14.1410113  35.7872753  27.3314083
  13.8360113  35.1102753  26.1784083  13.7490113  35.7262753  26.6554083
  22.8950113  25.2752753   4.4251673  22.3710113  25.8712753   4.7881673
  23.2920113  24.9072753   5.1091673  22.8760113  25.3092753   4.5801673
  12.7040113  32.1502753   6.1361673  12.8330113  31.8702753   6.9521673
  12.0940113  31.6092753   5.8271673  12.6330113  32.0292753   6.2111673
  19.2780113  29.6752753  11.2031673  19.0420113  29.6722753  12.0431673
  18.5300113  29.5272753  10.7791673  19.1320113  29.6522753  11.2641673
  18.6580113  22.2812753   5.6851673  19.3360113  22.2992753   5.1361673
  18.6130113  21.4452753   5.9301673  18.7510113  22.1602753   5.6401673
  19.2600113  32.8672753   8.4661673  19.3980113  33.6272753   8.0591673
  20.0510113  32.5022753   8.4931673  19.3970113  32.9262753   8.4101673
  20.3550113  30.7522753   2.9711673  20.7030113  29.9532753   3.0011673
  21.0200113  31.2562753   2.7161673  20.5050113  30.7082753   2.9381673
  22.3800113  24.3322753  10.5211673  21.5320113  24.2332753  10.3431673
  22.4090113  25.0772753  10.9751673  22.2590113  24.4282753  10.5621673
  26.9380113  17.2922753   9.6351673  26.7800113  18.0612753   9.2531673
  26.1660113  17.0722753   9.9791673  26.8000113  17.3732753   9.6301673
  12.6060113  24.4322753   3.3511673  12.3500113  25.2632753   3.2761673
  11.9420113  24.0492753   3.7681673  12.4700113  24.4982753   3.4021673
  15.6350113  19.2492753   3.8421673  15.1140113  18.6212753   3.5341673
  16.2260113  18.8122753   4.3131673  15.6460113  19.0912753   3.8661673
  18.9410113  21.3822753  13.1401673  19.0580113  20.9282753  12.4041673
  19.2290113  22.1802753  12.9371673  19.0010113  21.4332753  13.0011673
  25.1060113  34.6762753   6.5481673  25.8500113  35.1322753   6.5381673
  24.9850113  34.4622753   5.7111673  25.1980113  34.7122753   6.4231673
  14.6740113  20.9792753  12.1241673  13.8960113  20.5892753  12.0521673
  15.1650113  20.5672753  11.5331673  14.6310113  20.8602753  12.0261673
  14.8790113  31.2992753   2.6821673  15.3020113  30.9432753   2.0081673
  15.2030113  30.8772753   3.3741673  14.9890113  31.1842753   2.6851673
  18.1100113  34.1512753   1.9781673  18.9540113  34.2552753   1.7831673
  17.8130113  34.9692753   2.0461673  18.1910113  34.2872753   1.9591673
  21.3230113  18.6222753  11.2921673  21.5010113  17.8132753  11.0171673
  21.1800113  19.0632753  10.5531673  21.3280113  18.5682753  11.1421673
  17.1080113  35.3702753   7.7181673  17.4000113  35.3032753   8.5381673
  16.4820113  34.7652753   7.6731673  17.0590113  35.2712753   7.8331673
  29.4690113  20.2292753   5.8131673  30.2260113  20.3012753   5.3851673
  29.5320113  19.4562753   6.2121673  29.5900113  20.1262753   5.8081673
  12.0220113  21.5272753   9.7101673  12.0180113  22.1142753  10.3561673
  12.6160113  21.8392753   9.1531673  12.1090113  21.6602753   9.7231673
  24.3600113  31.8612753  10.2521673  24.3260113  32.2432753  11.0361673
  25.2140113  31.8192753  10.0811673  24.4810113  31.9112753  10.3431673
  15.1010113  33.5322753   6.8401673  14.4030113  33.0242753   6.9661673
  15.3610113  33.3272753   6.0321673  15.0360113  33.4272753   6.7391673
  22.8120113  35.0252753   7.7501673  23.5800113  34.9452753   7.3441673
  22.2290113  34.9042753   7.1121673  22.8390113  34.9952753   7.5961673
  16.4620113  32.3832753   9.4071673  17.3030113  32.4462753   9.1851673
  16.4250113  32.7802753  10.1831673  16.5810113  32.4512753   9.4891673
  18.4250113  27.8942753   4.1561673  18.5970113  27.6842753   4.9851673
  17.7700113  27.3602753   3.9401673  18.3540113  27.7842753   4.2471673
  24.6530113  21.8082753   7.6711673  24.5580113  22.1272753   8.4771673
  24.0600113  21.1692753   7.6331673  24.5510113  21.7602753   7.7851673
  19.1750113  27.8322753   6.7461673  19.2280113  28.6792753   6.9481673
  18.8900113  27.4622753   7.4831673  19.1410113  27.9022753   6.8841673
  25.3520113  28.5272753   5.8761673  24.8380113  28.1152753   6.4471673
  25.2260113  29.3712753   6.0571673  25.2580113  28.5912753   5.9871673
  11.9960113  32.2032753  12.9571673  12.7520113  32.5522753  13.2151673
  12.1730113  31.3502753  12.9001673  12.1340113  32.1282753  12.9871673
  28.3730113  21.9882753   8.8151673  29.1450113  21.7632753   9.1521673
  27.8980113  22.2052753   9.5151673  28.4170113  21.9872753   8.9681673
  14.5080113  35.4232753   2.5711673  13.8350113  34.9252753   2.3261673
  14.9110113  35.6082753   1.8201673  14.4680113  35.3772753   2.4241673
  14.0580113  22.3732753   4.8671673  14.9010113  22.5932753   4.8241673
  13.6690113  22.9462753   4.3361673  14.1250113  22.4902753   4.7821673
  30.8390113  33.4752753  10.2571673  30.1570113  33.7852753   9.8101673
  30.4700113  33.0172753  10.9021673  30.6830113  33.4532753  10.2861673
  12.2650113  30.3482753   2.8891673  11.5980113  30.8362753   3.1651673
  12.9450113  30.8932753   2.9181673  12.2670113  30.5002753   2.9341673
  19.9120113  24.0582753  12.9851673  19.4280113  24.6352753  13.4271673
  19.8840113  24.3532753  12.1641673  19.8360113  24.1872753  12.9291673
  31.0100113  24.7422753   7.5971673  31.2250113  23.9422753   7.3211673
  30.1600113  24.8022753   7.4081673  30.9160113  24.6332753   7.5281673
  16.7070113  30.1962753   4.6561673  17.1740113  30.4852753   5.3341673
  17.2790113  29.7182753   4.2021673  16.8610113  30.1682753   4.6891673
  25.1430113  22.2102753   2.3931673  25.4870113  22.3622753   3.1801673
  24.6900113  21.4722753   2.5061673  25.1270113  22.1232753   2.5261673
  13.2730113  27.8662753   3.2001673  13.7040113  27.7372753   2.4531673
  13.0680113  28.7142753   3.1741673  13.3060113  27.9722753   3.0861673
  28.6730113  33.8572753   8.3471673  28.0020113  34.3712753   8.5651673
  28.7360113  33.9572753   7.4831673  28.5830113  33.9482753   8.2521673
  15.4870113  24.8652753  11.3441673  14.9510113  24.3592753  11.8121673
  15.5070113  24.4752753  10.5641673  15.4100113  24.7322753  11.2981673
  16.1390113  26.0922753   3.0831673  15.3580113  26.0332753   2.7001673
  16.2110113  25.3402753   3.5201673  16.0340113  25.9732753   3.0911673
  16.5690113  25.8292753   6.5511673  16.5940113  25.1542753   6.0001673
  15.9230113  26.3252753   6.2391673  16.4780113  25.8022753   6.4241673
  26.4640113  23.5422753   4.9471673  25.8020113  23.8702753   5.4101673
  26.6510113  24.1762753   4.3781673  26.3940113  23.6842753   4.9311673
  20.6690113  34.6062753   5.9431673  20.3920113  33.9652753   5.4201673
  20.4610113  35.3322753   5.5051673  20.5980113  34.6192753   5.8011673
  23.1090113  19.4482753   8.3761673  23.2580113  18.6232753   8.1331673
  23.4880113  19.5032753   9.1601673  23.1870113  19.3342753   8.4561673
  14.3680113  27.1842753  12.1101673  14.3310113  27.6852753  11.3961673
  14.6990113  26.4322753  11.8151673  14.4110113  27.1462753  11.9611673
  25.9710113  29.3892753  10.3681673  26.4550113  30.1072753  10.4661673
  26.3650113  28.9622753   9.7171673  26.1010113  29.4322753  10.2861673
  20.2670113  32.2342753  11.5451673  20.6210113  32.0562753  12.3221673
  19.8310113  31.5052753  11.3461673  20.2550113  32.1002753  11.6311673
  21.2390113  22.9812753   4.1831673  21.7190113  23.6802753   4.3911673
  21.6120113  22.3342753   4.6341673  21.3650113  22.9892753   4.2801673
  24.4450113  33.0862753   4.2821673  23.8420113  32.7902753   3.7251673
  24.9900113  33.5382753   3.7731673  24.4360113  33.1092753   4.1241673
  24.4580113  29.9372753   3.6821673  23.6610113  30.1612753   3.9561673
  24.7160113  29.3432753   4.2671673  24.3780113  29.8822753   3.8091673
  27.7180113  27.9352753   8.5281673  27.7730113  28.0602753   7.6661673
  28.4710113  28.2552753   8.8301673  27.8370113  28.0002753   8.4451673
  23.9090113  33.2842753  12.8051673  24.0730113  33.5672753  13.6141673
  24.1720113  33.9452753  12.3001673  23.9720113  33.4242753  12.8501673
  28.7500113  18.2332753  11.5151673  28.1130113  17.8332753  11.0731673
  28.7760113  17.8022753  12.2731673  28.6600113  18.1112753  11.5611673
  23.4490113  27.7412753   8.1281673  23.2940113  28.3512753   8.7321673
  23.9830113  27.1832753   8.5341673  23.5050113  27.7492753   8.2771673
  27.0590113  30.4702753   4.6551673  26.5800113  30.7682753   3.9891673
  26.7030113  29.6942753   4.8331673  26.9360113  30.3992753   4.5831673
  21.0560113  28.1882753   3.2171673  20.2090113  27.9942753   3.2981673
  21.3800113  28.0232753   4.0101673  20.9780113  28.1352753   3.3461673
  14.9040113  27.8812753   5.5331673  15.6260113  28.3692753   5.4961673
  14.6340113  27.8512753   4.7041673  14.9710113  27.9492753   5.4051673
  18.1340113  23.0522753   2.2681673  18.9800113  22.8622753   2.3661673
  17.7640113  22.2752753   2.1301673  18.2040113  22.9092753   2.2621673
  27.9900113  27.4122753   5.7741673  27.9830113  26.6362753   6.1721673
  27.1490113  27.6462753   5.7671673  27.8650113  27.3322753   5.8321673
  14.2990113  28.9332753   9.8111673  13.8780113  28.4152753   9.2501673
  13.9470113  29.7192753   9.6681673  14.1850113  28.9732753   9.7071673
  29.2460113  27.4832753   3.2111673  28.9600113  27.8842753   3.9311673
  30.1060113  27.4212753   3.3381673  29.3310113  27.5332753   3.3361673
  26.9080113  21.4072753  11.7511673  26.3830113  21.8662753  12.2751673
  26.5470113  20.6122753  11.7451673  26.7770113  21.3572753  11.8271673
  12.4150113  20.2552753   3.6551673  12.4590113  20.5992753   2.8541673
  13.1700113  20.4922753   4.0221673  12.5330113  20.3412753   3.5911673
  30.3770113  33.1162753   3.7401673  30.6670113  33.3732753   2.9591673
  31.0720113  33.2122753   4.2591673  30.5230113  33.1682753   3.7011673
  25.4000113  24.9762753  11.8271673  25.4730113  25.0802753  12.6901673
  24.7660113  25.5342753  11.6061673  25.3170113  25.0742753  11.9221673
  27.6680113  25.2952753  10.1921673  27.9870113  26.0812753  10.3951673
  27.2980113  25.0252753  10.9351673  27.6610113  25.3712753  10.3321673
  30.3660113  25.8372753  12.9271673  30.3140113  25.4962753  12.1261673
  31.1030113  26.3042753  12.9051673  30.4670113  25.8562753  12.8051673
  29.9040113  29.5132753   9.1331673  30.5320113  28.9642753   8.8771673
  29.8430113  30.0782753   8.4711673  29.9880113  29.5162753   8.9971673
  19.0380113  30.7442753   6.4291673  18.7400113  31.3362753   6.9961673
  19.0930113  31.1862753   5.6801673  19.0020113  30.8972753   6.4021673
  17.0170113  29.6942753   9.8271673  16.2110113  29.4042753   9.9941673
  16.9280113  30.5622753   9.8331673  16.8850113  29.7792753   9.8521673
  26.3760113  19.8832753   8.8421673  27.1200113  20.3352753   8.7791673
  25.8100113  20.3532753   8.3731673  26.4030113  20.0202753   8.7641673
  21.5540113  27.1672753   5.9201673  22.0300113  27.5412753   6.5481673
  20.7310113  27.3012753   6.1791673  21.5030113  27.2422753   6.0511673
  18.2640113  22.7702753   8.6611673  18.4250113  22.0262753   9.0881673
  18.2190113  22.5212753   7.8261673  18.2810113  22.6232753   8.6011673
  27.6610113  17.8632753   6.5121673  27.3810113  18.6882753   6.4681673
  28.3770113  17.9162753   7.0081673  27.7260113  17.9932753   6.5791673
  20.0160113  18.5782753   8.5411673  20.7210113  18.8982753   8.1391673
  20.2570113  17.7712753   8.7681673  20.1550113  18.5062753   8.5151673
  19.0010113  32.7882753   4.5371673  18.3770113  33.3702753   4.3551673
  19.2490113  32.5022753   3.7511673  18.9450113  32.8322753   4.3941673
  23.3100113  29.4222753  11.5261673  24.0670113  29.7082753  11.2001673
  22.7630113  29.4742753  10.8481673  23.3410113  29.4722753  11.3771673
  27.2190113  31.9722753  10.0301673  27.5650113  32.2422753  10.7841673
  27.5130113  32.5542753   9.4501673  27.3140113  32.0982753  10.0561673
  16.5250113  23.6312753   4.6021673  16.9650113  23.5282753   3.8561673
  17.0700113  23.3182753   5.2071673  16.6700113  23.5702753   4.5811673
  24.5410113  22.7332753  10.1941673  23.8930113  23.2032753  10.5421673
  25.1060113  22.6442753  10.8531673  24.5290113  22.7892753  10.3431673
  24.2290113  24.2702753   6.4921673  24.5310113  24.6902753   7.1951673
  24.2650113  23.4302753   6.7241673  24.2790113  24.2082753   6.6301673
  21.6540113  34.4372753  10.4171673  22.1320113  33.8372753  10.0011673
  21.3030113  33.9942753  11.0821673  21.6730113  34.2832753  10.4541673
  20.0720113  18.6162753   4.6491673  19.2460113  18.4672753   4.8861673
  20.0320113  18.6512753   3.7781673  19.9440113  18.5992753   4.5551673
  21.7130113  29.6562753   9.4371673  20.9180113  29.5922753   9.7881673
  21.7840113  30.5032753   9.2421673  21.6060113  29.7712753   9.4601673
  12.6370113  19.0142753  10.6841673  12.4970113  19.8092753  10.3531673
  11.8510113  18.7712753  10.9731673  12.5000113  19.0962753  10.6781673
  17.5430113  35.8632753   4.7541673  17.5540113  35.9222753   5.6241673
  17.1180113  35.1162753   4.6041673  17.4820113  35.7612753   4.8601673
  22.2020113  32.3032753   8.5451673  22.8890113  32.1892753   9.0701673
  22.3360113  33.0942753   8.2011673  22.3230113  32.4032753   8.5721673
  30.3780113  24.9122753  10.3561673  29.5230113  24.7902753  10.4821673
  30.5310113  24.5172753   9.5931673  30.2740113  24.8352753  10.2621673
  24.8910113  25.5772753   8.9321673  24.6360113  24.8582753   9.3541673
  25.7120113  25.6932753   9.2021673  24.9750113  25.4882753   9.0341673
  14.3070113  35.3612753  10.1961673  13.6530113  34.7922753  10.2941673
  13.9320113  36.1342753  10.3471673  14.1550113  35.3912753  10.2331673
  22.8250113  26.7672753  12.1191673  23.1480113  27.4532753  11.6871673
  22.1210113  27.0902753  12.5211673  22.7680113  26.9162753  12.1141673
  25.9090113  35.1412753   3.0481673  25.4580113  35.7842753   3.4271673
  26.6170113  35.0622753   3.5531673  25.9470113  35.2242753   3.1791673
  22.6100113  30.2312753   5.9781673  21.9160113  30.6332753   6.3211673
  23.2870113  30.6642753   6.3171673  22.6070113  30.3542753   6.0791673
  27.9870113  32.8242753  12.5581673  28.7630113  32.4342753  12.6411673
  27.5180113  32.4882753  13.2131673  28.0320113  32.7172753  12.6671673
  15.6780113  23.7692753   8.3251673  16.0530113  24.3882753   7.8381673
  16.3520113  23.2952753   8.6101673  15.8330113  23.7912753   8.2951673
  13.4530113  22.2172753   7.6001673  13.5300113  22.0482753   6.7471673
  14.1990113  22.6232753   7.7971673  13.5740113  22.2522753   7.5031673
  16.0070113  19.6272753  10.0111673  15.9260113  18.7832753  10.2171673
  15.6930113  19.6712753   9.1981673  15.9490113  19.5092753   9.9211673
  28.1140113  25.0032753   7.3961673  28.1120113  24.1402753   7.5201673
  28.1810113  25.3272753   8.2031673  28.1240113  24.9232753   7.5331673
  12.8500113  27.4432753   7.8241673  13.1700113  27.6622753   7.0431673
  12.7500113  26.5782753   7.7691673  12.8820113  27.3482753   7.7011673
  23.9930113  19.8032753  11.1781673  24.0850113  20.5152753  11.6721673
  23.3560113  19.3582753  11.5751673  23.9120113  19.8422753  11.3101673
  26.5850113  20.5092753   4.8321673  27.4400113  20.6082753   4.9771673
  26.2160113  21.0622753   5.3971673  26.6570113  20.6062753   4.9371673
  17.6130113  26.7352753   9.2091673  17.2170113  27.5092753   9.2841673
  17.2070113  26.3622753   8.5331673  17.4950113  26.7942753   9.1201673
  26.8890113  25.7892753   3.3231673  27.5550113  26.3302753   3.4831673
  26.5440113  26.1002753   2.5841673  26.9360113  25.9152753   3.2381673
  18.0420113  19.7122753   6.6591673  17.1780113  19.7962753   6.7391673
  18.2620113  19.1982753   7.3281673  17.9470113  19.6492753   6.7701673
  30.0600113  18.3472753   7.9881673  30.0080113  18.3032753   8.8581673
  30.7470113  17.8442753   7.7981673  30.1540113  18.2672753   8.0881673
  22.1450113  20.4602753   5.0331673  21.4080113  20.0062753   5.1461673
  22.7160113  20.0582753   5.5561673  22.1200113  20.3332753   5.1271673
  24.8770113  31.3082753   6.8211673  25.0830113  31.6092753   7.6131673
  24.8160113  32.0302753   6.3361673  24.8980113  31.4592753   6.8661673
  24.4110113  35.5222753  11.0671673  23.6580113  35.5042753  10.6261673
  24.5790113  36.3742753  11.1511673  24.3250113  35.6452753  11.0141673
  19.6480113  24.7892753  10.2371673  19.3260113  24.2132753   9.6671673
  19.2890113  25.5442753   9.9911673  19.5480113  24.8152753  10.1171673
  29.6890113  29.9472753   6.2791673  29.6570113  29.0852753   6.1441673
  28.9960113  30.2492753   5.8451673  29.5820113  29.8642753   6.1951673
  18.0830113  35.1452753  10.4851673  18.1240113  35.2712753  11.3481673
  18.7340113  34.5852753  10.3291673  18.1850113  35.0812753  10.5901673
  27.7940113  33.2072753   5.0761673  28.3210113  33.1242753   4.3851673
  27.4030113  32.4292753   5.1301673  27.8140113  33.0802753   4.9821673
  15.2620113  19.7952753   7.3071673  14.9190113  19.0282753   7.0731673
  14.5670113  20.3192753   7.3711673  15.1090113  19.7592753   7.2821673
  24.3080113  18.6512753   4.2841673  24.9780113  19.1952753   4.4111673
  23.8050113  19.0752753   3.7111673  24.3330113  18.7942753   4.2181673
  15.6760113  33.5282753  11.8451673  16.2710113  33.9592753  12.3171673
  15.3120113  34.1522753  11.3561673  15.7100113  33.6842753  11.8421673
  23.6670113  24.4592753   1.7771673  24.2180113  23.8522753   2.0771673
  23.2420113  24.7222753   2.4921673  23.6860113  24.4082753   1.9261673
  13.6030113  31.5172753   8.7741673  13.0290113  31.9332753   9.2831673
  14.3360113  31.9822753   8.8691673  13.6270113  31.6472753   8.8631673
  28.9110113  27.6632753  11.4901673  29.5450113  27.4932753  12.0641673
  29.3280113  28.0662753  10.8381673  29.0660113  27.6982753  11.4791673
  29.5360113  22.2272753  12.2281673  29.3400113  22.8712753  12.7831673
  28.8140113  21.7372753  12.2201673  29.4010113  22.2502753  12.3091673
  29.4350113  23.1682753   5.1991673  28.6020113  23.4182753   5.1271673
  29.3790113  22.3282753   5.4281673  29.3040113  23.0812753   5.2221673
  18.6950113  20.1562753  10.3931673  18.9290113  19.5802753   9.7801673
  17.8530113  19.9752753  10.5341673  18.6050113  20.0442753  10.3231673
  26.3220113  27.7742753  12.8451673  27.1930113  27.7382753  12.8091673
  26.1030113  28.1942753  12.1131673  26.4190113  27.8302753  12.7321673
  16.0760113  33.5992753   4.0261673  15.9970113  32.7892753   3.7101673
  15.6320113  34.0862753   3.4541673  15.9990113  33.5512753   3.8951673
  13.6480113  35.8432753   7.6071673  14.1410113  35.7872753   8.3251673
  13.8360113  35.1102753   7.1721673  13.7490113  35.7262753   7.6491673
  22.8950113   6.7971673  80.4501313  22.3710113   7.3931673  80.8131313
  23.2920113   6.4291673  81.1341313  22.8760113   6.8311673  80.6051313
  12.7640113  10.9371673  75.9061313  12.3230113  11.0551673  76.6491313
  12.4810113  10.1621673  75.6211313  12.6570113  10.8401673  75.9741313
  29.0390113  14.2381673  73.4211313  29.7400113  13.7191673  73.4171313
  28.4520113  13.7931673  72.9521313  29.0560113  14.0951673  73.3511313
  12.5070113   4.7291673  72.4131313  11.7290113   4.8911673  72.0531313
  12.5460113   3.8581673  72.4351313  12.3980113   4.6241673  72.3631313
  15.6460113   9.9921673  71.0851313  15.2540113   9.6211673  70.3991313
  15.5660113   9.3941673  71.7141313  15.5760113   9.8491673  71.0761313
  25.5660113   7.8641673  77.1261313  25.6460113   7.8681673  76.2571313
  24.9820113   7.2321673  77.2751313  25.4910113   7.7711673  77.0201313
  15.2730113  11.6331673  74.9851313  15.8810113  11.4631673  75.5881313
  14.5220113  11.4931673  75.4061313  15.2520113  11.5871673  75.1361313
  14.1640113  14.7241673  71.0621313  14.6310113  14.8081673  70.3301313
  14.6190113  14.1461673  71.5311313  14.3000113  14.6511673  71.0231313
  14.1500113   8.1931673  76.3631313  13.6880113   7.8011673  75.7361313
  14.8500113   7.6801673  76.4551313  14.1850113   8.0601673  76.2841313
  16.1510113   6.2931673  76.3861313  16.9680113   6.1061673  76.6291313
  15.6740113   5.6791673  76.7821313  16.2010113   6.1751673  76.4811313
  20.3550113  12.2741673  78.9961313  20.7030113  11.4751673  79.0261313
  21.0200113  12.7781673  78.7411313  20.5050113  12.2301673  78.9631313
  20.4120113  11.7231673  75.2071313  20.7430113  11.0791673  75.6931313
  20.6520113  11.5121673  74.3961313  20.4960113  11.5971673  75.1591313
  24.4000113   3.4551673  70.1741313  23.9500113   4.1361673  70.4811313
  24.5140113   2.9511673  70.8771313  24.3510113   3.4811673  70.3231313
  12.6060113   5.9541673  79.3761313  12.3500113   6.7851673  79.3011313
  11.9420113   5.5711673  79.7931313  12.4700113   6.0201673  79.4271313
  12.5160113  15.6641673  77.2761313  11.9240113  16.2221673  76.9631313
  12.9420113  15.3951673  76.5641313  12.4920113  15.7061673  77.1251313
  18.3560113  13.5081673  74.7561313  17.7770113  13.2331673  75.3481313
  18.9800113  12.8991673  74.7811313  18.3630113  13.3781673  74.8471313
  24.4990113  15.7961673  72.2781313  25.2260113  16.2681673  72.3801313
  24.7280113  15.0021673  72.5581313  24.6410113  15.7491673  72.3351313
  22.6670113  16.1881673  74.2681313  22.8810113  16.7151673  74.9301313
  23.4340113  16.0141673  73.8891313  22.8120113  16.2401673  74.3101313
  14.0610113  14.3341673  75.2071313  14.7170113  13.7591673  75.2221313
  14.4500113  15.0831673  74.9861313  14.2160113  14.3591673  75.1771313
  29.7940113   3.4281673  76.4691313  29.4480113   4.1061673  76.8951313
  29.1580113   2.8301673  76.4851313  29.6490113   3.4401673  76.5341313
  14.8790113  12.8211673  78.7071313  15.3020113  12.4651673  78.0331313
  15.2030113  12.3991673  79.3991313  14.9890113  12.7061673  78.7101313
  18.1100113  15.6731673  78.0031313  18.9540113  15.7771673  77.8081313
  17.8130113  16.4911673  78.0711313  18.1910113  15.8091673  77.9841313
  21.9170113   5.0701673  76.0901313  22.2040113   4.8381673  75.3001313
  22.6490113   5.1491673  76.5591313  22.0670113   5.0471673  76.0431313
  22.6390113   5.4091673  71.2111313  22.9200113   6.1971673  71.4601313
  21.8630113   5.5741673  70.8481313  22.5660113   5.5501673  71.1941313
  26.6800113  17.3831673  72.6781313  27.3450113  17.2351673  72.1331313
  27.0400113  17.3001673  73.4681313  26.8320113  17.3491673  72.7141313
  21.4980113  13.5801673  71.0271313  21.3170113  14.1251673  71.6841313
  22.2640113  13.8701673  70.7261313  21.5840113  13.7041673  71.0801313
  12.9590113   2.6441673  74.6501313  12.8450113   1.7801673  74.6811313
  12.4840113   2.9381673  75.3201313  12.8720113   2.5601673  74.7531313
  22.2630113   3.8521673  73.3951313  21.7550113   3.1901673  73.1411313
  22.3150113   4.3561673  72.6851313  22.1960113   3.8291673  73.2531313
  29.0890113  17.1501673  76.6761313  28.6340113  17.8671673  76.8771313
  28.4750113  16.5791673  76.4341313  28.9310113  17.1721673  76.6701313
  20.8610113   3.1601673  77.8081313  20.9350113   3.7281673  77.1501313
  20.9820113   3.6521673  78.5181313  20.8890113   3.3171673  77.8161313
  26.0860113  12.9951673  76.2201313  26.7870113  12.5131673  76.4091313
  25.4260113  12.4261673  76.2651313  26.0920113  12.8401673  76.2541313
  18.4250113   9.4161673  80.1811313  18.5970113   9.2061673  81.0101313
  17.7700113   8.8821673  79.9651313  18.3540113   9.3061673  80.2721313
  15.9170113   2.7931673  77.8101313  16.1890113   2.3631673  77.1021313
  15.7410113   2.1571673  78.3811313  15.9310113   2.6361673  77.7901313
  28.6050113  10.4881673  72.0281313  28.7240113  10.2011673  72.8431313
  29.4120113  10.5091673  71.6981313  28.7410113  10.4491673  72.1001313
  15.7410113  10.2201673  77.3591313  16.5920113  10.1401673  77.1861313
  15.3840113   9.5381673  76.9471313  15.8140113  10.1071673  77.2721313
  14.5080113  16.9451673  78.5961313  13.8350113  16.4471673  78.3511313
  14.9110113  17.1301673  77.8451313  14.4680113  16.8991673  78.4491313
  14.0580113   3.8951673  80.8921313  14.9010113   4.1151673  80.8491313
  13.6690113   4.4681673  80.3611313  14.1250113   4.0121673  80.8071313
  26.5000113   7.0251673  71.6131313  26.2800113   7.7561673  71.1911313
  26.0520113   7.0761673  72.3601313  26.4010113   7.1401673  71.6611313
  18.1090113  10.2271673  75.5941313  18.8220113  10.7221673  75.6841313
  18.3310113   9.6601673  74.9681313  18.2470113  10.2161673  75.5151313
  12.2650113  11.8701673  78.9141313  11.5980113  12.3581673  79.1901313
  12.9450113  12.4151673  78.9431313  12.2670113  12.0221673  78.9591313
  12.3310113   8.5541673  74.0171313  12.1460113   7.7151673  74.1691313
  12.9900113   8.5181673  73.4471313  12.4010113   8.4251673  73.9551313
  22.6320113  13.9301673  77.9211313  22.1090113  14.5641673  77.6281313
  22.9420113  13.5661673  77.1921313  22.6000113  13.9701673  77.7701313
  12.5030113  12.7181673  73.5921313  13.0550113  13.2871673  73.9561313
  12.2710113  12.2031673  74.2571313  12.5500113  12.7261673  73.7441313
  16.7070113  11.7181673  80.6811313  17.1740113  12.0071673  81.3591313
  17.2790113  11.2401673  80.2271313  16.8610113  11.6901673  80.7141313
  25.1430113   3.7321673  78.4181313  25.4870113   3.8841673  79.2051313
  24.6900113   2.9941673  78.5311313  25.1270113   3.6451673  78.5511313
  12.3330113  11.1671673  71.2201313  13.0890113  10.7351673  71.2781313
  12.3480113  11.6991673  71.9111313  12.4470113  11.1821673  71.3311313
  13.2730113   9.3881673  79.2251313  13.7040113   9.2591673  78.4781313
  13.0680113  10.2361673  79.1991313  13.3060113   9.4941673  79.1111313
  19.6190113   2.9521673  72.8751313  19.6170113   2.8351673  72.0101313
  19.4380113   3.8001673  72.9671313  19.5920113   3.0601673  72.7611313
  17.3570113  12.9041673  77.5071313  17.4830113  13.7471673  77.6941313
  18.0250113  12.5051673  77.9031313  17.4750113  12.9701673  77.5931313
  15.9720113   5.7841673  72.5091313  15.8440113   5.3361673  73.2471313
  15.3900113   5.4421673  71.9571313  15.8670113   5.6671673  72.5371313
  16.1390113   7.6141673  79.1081313  15.3580113   7.5551673  78.7251313
  16.2110113   6.8621673  79.5451313  16.0340113   7.4951673  79.1161313
  26.4640113   5.0641673  80.9721313  25.8020113   5.3921673  81.4351313
  26.6510113   5.6981673  80.4031313  26.3940113   5.2061673  80.9561313
  24.6570113   3.0331673  74.4831313  25.1470113   3.7501673  74.4061313
  23.8670113   3.2941673  74.2201313  24.6130113   3.1771673  74.4331313
  21.2390113   4.5031673  80.2081313  21.7190113   5.2021673  80.4161313
  21.6120113   3.8561673  80.6591313  21.3650113   4.5111673  80.3051313
  23.4280113   7.6721673  72.4821313  23.4200113   8.3941673  71.9921313
  22.7890113   7.8071673  73.0591313  23.3330113   7.7991673  72.4951313
  28.4000113  11.5421673  76.4631313  28.7560113  11.1921673  77.1781313
  28.3920113  10.8811673  75.8931313  28.4520113  11.3921673  76.4841313
  24.4450113  14.6081673  80.3071313  23.8420113  14.3121673  79.7501313
  24.9900113  15.0601673  79.7981313  24.4360113  14.6311673  80.1491313
  24.4580113  11.4591673  79.7071313  23.6610113  11.6831673  79.9811313
  24.7160113  10.8651673  80.2921313  24.3780113  11.4041673  79.8341313
  18.3500113  16.2711673  74.1551313  18.2030113  15.4951673  74.5261313
  19.0390113  16.1241673  73.6401313  18.4300113  16.1341673  74.1341313
  20.6420113  15.7871673  72.5571313  21.2640113  15.9501673  73.1471313
  20.6780113  16.4781673  72.0251313  20.7390113  15.9131673  72.5661313
  15.1430113   8.3211673  73.3861313  15.4670113   7.5421673  73.1641313
  15.7890113   8.6891673  73.8411313  15.2860113   8.2601673  73.4201313
  21.8330113   7.6631673  74.8111313  21.8920113   8.3131673  75.3901313
  21.6440113   6.9671673  75.3021313  21.8140113   7.6561673  74.9691313
  27.0590113  11.9921673  80.6801313  26.5800113  12.2901673  80.0141313
  26.7030113  11.2161673  80.8581313  26.9360113  11.9211673  80.6081313
  16.3290113   2.1801673  71.3231313  15.8180113   2.2331673  70.6171313
  17.1130113   2.4201673  71.0271313  16.3690113   2.2231673  71.1751313
  21.0560113   9.7101673  79.2421313  20.2090113   9.5161673  79.3231313
  21.3800113   9.5451673  80.0351313  20.9780113   9.6571673  79.3711313
  17.8080113  16.4401673  70.1281313  18.2470113  15.7431673  70.4161313
  18.0150113  17.0641673  70.7011313  17.9040113  16.4291673  70.2551313
  14.9040113   9.4031673  81.5581313  15.6260113   9.8911673  81.5211313
  14.6340113   9.3731673  80.7291313  14.9710113   9.4711673  81.4301313
  18.1340113   4.5741673  78.2931313  18.9800113   4.3841673  78.3911313
  17.7640113   3.7971673  78.1551313  18.2040113   4.4311673  78.2871313
  30.7510113  16.1581673  72.6201313  31.4450113  15.6911673  72.3721313
  30.2120113  15.5601673  72.9571313  30.7740113  16.0001673  72.6331313
  12.9550113   5.9121673  74.9481313  13.4440113   5.6201673  75.6091313
  13.0840113   5.3191673  74.3211313  13.0460113   5.7811673  74.9531313
  17.4800113   7.3461673  70.4341313  16.8700113   6.9411673  70.9081313
  17.0940113   7.4641673  69.6611313  17.3330113   7.3031673  70.3901313
  29.2460113   9.0051673  79.2361313  28.9600113   9.4061673  79.9561313
  30.1060113   8.9431673  79.3631313  29.3310113   9.0551673  79.3611313
  18.9350113   5.8071673  73.1441313  19.2070113   6.6331673  73.2111313
  18.0720113   5.8821673  73.0481313  18.8480113   5.9401673  73.1391313
  12.4150113   1.7771673  79.6801313  12.4590113   2.1211673  78.8791313
  13.1700113   2.0141673  80.0471313  12.5330113   1.8631673  79.6161313
  30.3770113  14.6381673  79.7651313  30.6670113  14.8951673  78.9841313
  31.0720113  14.7341673  80.2841313  30.5230113  14.6901673  79.7261313
  26.9820113  13.2411673  71.7471313  27.3160113  12.4351673  71.7821313
  26.2270113  13.1691673  72.1771313  26.9200113  13.1111673  71.8161313
  27.4640113   5.0751673  77.4061313  26.7190113   4.7521673  77.7241313
  27.4660113   5.9011673  77.6861313  27.3540113   5.1491673  77.4941313
  24.3560113  11.1161673  71.1501313  25.0400113  10.6021673  70.9811313
  23.9390113  11.1621673  70.3851313  24.3950113  11.0471673  71.0121313
  20.8180113  16.0821673  77.1731313  21.3640113  16.7611673  77.2271313
  20.4680113  16.1641673  76.3781313  20.8470113  16.1951673  77.0631313
  19.0010113  14.3101673  80.5621313  18.3770113  14.8921673  80.3801313
  19.2490113  14.0241673  79.7761313  18.9450113  14.3541673  80.4191313
  29.0820113   5.6401673  71.3941313  29.4600113   6.3171673  70.9941313
  28.2400113   5.8641673  71.4251313  29.0130113   5.7731673  71.3391313
  20.5950113   9.0861673  70.4771313  19.7900113   8.9091673  70.1921313
  20.5620113   9.9371673  70.6691313  20.4710113   9.1851673  70.4641313
  16.5250113   5.1531673  80.6271313  16.9650113   5.0501673  79.8811313
  17.0700113   4.8401673  81.2321313  16.6700113   5.0921673  80.6061313
  26.7770113   5.2391673  74.7691313  26.9840113   5.0381673  75.5931313
  27.5330113   5.5071673  74.4271313  26.9190113   5.2491673  74.8401313
  28.2420113   9.2661673  74.6231313  28.7180113   8.5371673  74.5751313
  27.4210113   8.9801673  74.5471313  28.1910113   9.1161673  74.6041313
  15.7010113   3.2801673  73.9341313  15.8270113   2.9511673  73.1361313
  14.8890113   3.0311673  74.1331313  15.6000113   3.1951673  73.8461313
  24.4580113  10.4331673  76.9781313  24.5340113  10.7741673  77.7771313
  24.6270113   9.5861673  77.0991313  24.4940113  10.3581673  77.1141313
  21.9800113   9.7071673  76.5431313  21.6820113   9.3921673  77.3001313
  22.6750113  10.1801673  76.7781313  22.0390113   9.7301673  76.6901313
  25.9090113  16.6631673  79.0731313  25.4580113  17.3061673  79.4521313
  26.6170113  16.5841673  79.5781313  25.9470113  16.7461673  79.2041313
  29.0120113   6.3791673  74.0651313  29.1150113   6.3211673  73.2011313
  29.7530113   6.0471673  74.3831313  29.1370113   6.3221673  73.9841313
  22.9320113  13.3441673  75.1721313  22.7270113  14.1771673  75.0131313
  22.1570113  12.9621673  75.2941313  22.7870113  13.4111673  75.1671313
  14.3060113   4.9011673  70.4671313  13.6340113   4.9151673  71.0231313
  14.4010113   4.0531673  70.2831313  14.2210113   4.7781673  70.5221313
  18.2940113  13.6061673  71.5811313  18.7350113  13.6861673  72.3291313
  17.4890113  13.3901673  71.8391313  18.2400113  13.5861673  71.7301313
  26.5850113   2.0311673  80.8571313  27.4400113   2.1301673  81.0021313
  26.2160113   2.5841673  81.4221313  26.6570113   2.1281673  80.9621313
  26.8890113   7.3111673  79.3481313  27.5550113   7.8521673  79.5081313
  26.5440113   7.6221673  78.6091313  26.9360113   7.4371673  79.2631313
  27.2020113  15.3771673  75.1551313  27.0280113  14.7231673  75.7051313
  27.9150113  15.1061673  74.7321313  27.2820113  15.2401673  75.1741313
  15.6230113  12.6761673  72.1821313  15.3790113  12.3691673  72.9621313
  15.5900113  11.9731673  71.6661313  15.5820113  12.5271673  72.2211313
  18.4420113  10.9211673  70.9251313  17.6240113  10.6531673  71.0651313
  18.4140113  11.7731673  71.1101313  18.3170113  11.0081673  70.9731313
  27.7940113  14.7291673  81.1011313  28.3210113  14.6461673  80.4101313
  27.4030113  13.9511673  81.1551313  27.8140113  14.6021673  81.0071313
  23.6670113   5.9811673  77.8021313  24.2180113   5.3741673  78.1021313
  23.2420113   6.2441673  78.5171313  23.6860113   5.9301673  77.9511313
  13.9150113   4.6311673  77.2881313  13.5470113   4.9331673  78.0191313
  14.4490113   4.0021673  77.5721313  13.9390113   4.5831673  77.4381313
  25.6370113   7.8121673  74.3641313  25.7050113   6.9621673  74.5451313
  24.8140113   7.8981673  74.0861313  25.5250113   7.6991673  74.3501313
  15.3890113  16.3061673  73.5741313  15.2440113  16.4621673  72.7281313
  16.2550113  16.3851673  73.6521313  15.4960113  16.3411673  73.4611313
  19.5560113   8.7031673  73.3021313  19.6560113   8.8421673  72.4471313
  20.3740113   8.6431673  73.5981313  19.6910113   8.7141673  73.2191313
  28.7160113  16.7671673  70.7821313  29.3530113  16.6331673  71.3631313
  28.3750113  15.9731673  70.6651313  28.7600113  16.6301673  70.8501313
  24.7910113  13.0321673  73.1041313  24.5400113  12.9041673  73.9301313
  24.4740113  12.3371673  72.6831313  24.7070113  12.9111673  73.1641313
  29.4350113   4.6901673  81.2241313  28.6020113   4.9401673  81.1521313
  29.3790113   3.8501673  81.4531313  29.3040113   4.6031673  81.2471313
  16.0760113  15.1211673  80.0511313  15.9970113  14.3111673  79.7351313
  15.6320113  15.6081673  79.4791313  15.9990113  15.0731673  79.9201313
  21.6770113  11.2401673  72.5341313  22.3940113  10.8931673  72.1781313
  21.6430113  12.0401673  72.1861313  21.7780113  11.3071673  72.4301313
  22.8950113   6.7971673  61.4438903  22.3710113   7.3931673  61.8068903
  23.2920113   6.4291673  62.1278903  22.8760113   6.8311673  61.5988903
  12.7640113  10.9371673  56.8998903  12.3230113  11.0551673  57.6428903
  12.4810113  10.1621673  56.6148903  12.6570113  10.8401673  56.9678903
  29.0390113  14.2381673  54.4148903  29.7400113  13.7191673  54.4108903
  28.4520113  13.7931673  53.9458903  29.0560113  14.0951673  54.3448903
  12.5070113   4.7291673  53.4068903  11.7290113   4.8911673  53.0468903
  12.5460113   3.8581673  53.4288903  12.3980113   4.6241673  53.3568903
  15.6460113   9.9921673  52.0788903  15.2540113   9.6211673  51.3928903
  15.5660113   9.3941673  52.7078903  15.5760113   9.8491673  52.0698903
  25.5660113   7.8641673  58.1198903  25.6460113   7.8681673  57.2508903
  24.9820113   7.2321673  58.2688903  25.4910113   7.7711673  58.0138903
  15.2730113  11.6331673  55.9788903  15.8810113  11.4631673  56.5818903
  14.5220113  11.4931673  56.3998903  15.2520113  11.5871673  56.1298903
  14.1640113  14.7241673  52.0558903  14.6310113  14.8081673  51.3238903
  14.6190113  14.1461673  52.5248903  14.3000113  14.6511673  52.0168903
  12.7040113  13.6721673  63.1548903  12.8330113  13.3921673  63.9708903
  12.0940113  13.1311673  62.8458903  12.6330113  13.5511673  63.2298903
  19.2780113  11.1971673  68.2218903  19.0420113  11.1941673  69.0618903
  18.5300113  11.0491673  67.7978903  19.1320113  11.1741673  68.2828903
  14.1500113   8.1931673  57.3568903  13.6880113   7.8011673  56.7298903
  14.8500113   7.6801673  57.4488903  14.1850113   8.0601673  57.2778903
  18.6580113   3.8031673  62.7038903  19.3360113   3.8211673  62.1548903
  18.6130113   2.9671673  62.9488903  18.7510113   3.6821673  62.6588903
  19.2600113  14.3891673  65.4848903  19.3980113  15.1491673  65.0778903
  20.0510113  14.0241673  65.5118903  19.3970113  14.4481673  65.4288903
  16.1510113   6.2931673  57.3798903  16.9680113   6.1061673  57.6228903
  15.6740113   5.6791673  57.7758903  16.2010113   6.1751673  57.4748903
  20.3550113  12.2741673  59.9898903  20.7030113  11.4751673  60.0198903
  21.0200113  12.7781673  59.7348903  20.5050113  12.2301673  59.9568903
  20.4120113  11.7231673  56.2008903  20.7430113  11.0791673  56.6868903
  20.6520113  11.5121673  55.3898903  20.4960113  11.5971673  56.1528903
  22.3800113   5.8541673  67.5398903  21.5320113   5.7551673  67.3618903
  22.4090113   6.5991673  67.9938903  22.2590113   5.9501673  67.5808903
  24.4000113   3.4551673  51.1678903  23.9500113   4.1361673  51.4748903
  24.5140113   2.9511673  51.8708903  24.3510113   3.4811673  51.3168903
  12.6060113   5.9541673  60.3698903  12.3500113   6.7851673  60.2948903
  11.9420113   5.5711673  60.7868903  12.4700113   6.0201673  60.4208903
  12.5160113  15.6641673  58.2698903  11.9240113  16.2221673  57.9568903
  12.9420113  15.3951673  57.5578903  12.4920113  15.7061673  58.1188903
  18.3560113  13.5081673  55.7498903  17.7770113  13.2331673  56.3418903
  18.9800113  12.8991673  55.7748903  18.3630113  13.3781673  55.8408903
  24.4990113  15.7961673  53.2718903  25.2260113  16.2681673  53.3738903
  24.7280113  15.0021673  53.5518903  24.6410113  15.7491673  53.3288903
  22.6670113  16.1881673  55.2618903  22.8810113  16.7151673  55.9238903
  23.4340113  16.0141673  54.8828903  22.8120113  16.2401673  55.3038903
  18.9410113   2.9041673  70.1588903  19.0580113   2.4501673  69.4228903
  19.2290113   3.7021673  69.9558903  19.0010113   2.9551673  70.0198903
  14.0610113  14.3341673  56.2008903  14.7170113  13.7591673  56.2158903
  14.4500113  15.0831673  55.9798903  14.2160113  14.3591673  56.1708903
  29.7940113   3.4281673  57.4628903  29.4480113   4.1061673  57.8888903
  29.1580113   2.8301673  57.4788903  29.6490113   3.4401673  57.5278903
  25.1060113  16.1981673  63.5668903  25.8500113  16.6541673  63.5568903
  24.9850113  15.9841673  62.7298903  25.1980113  16.2341673  63.4418903
  14.6740113   2.5011673  69.1428903  13.8960113   2.1111673  69.0708903
  15.1650113   2.0891673  68.5518903  14.6310113   2.3821673  69.0448903
  14.8790113  12.8211673  59.7008903  15.3020113  12.4651673  59.0268903
  15.2030113  12.3991673  60.3928903  14.9890113  12.7061673  59.7038903
  18.1100113  15.6731673  58.9968903  18.9540113  15.7771673  58.8018903
  17.8130113  16.4911673  59.0648903  18.1910113  15.8091673  58.9778903
  21.9170113   5.0701673  57.0838903  22.2040113   4.8381673  56.2938903
  22.6490113   5.1491673  57.5528903  22.0670113   5.0471673  57.0368903
  22.6390113   5.4091673  52.2048903  22.9200113   6.1971673  52.4538903
  21.8630113   5.5741673  51.8418903  22.5660113   5.5501673  52.1878903
  26.6800113  17.3831673  53.6718903  27.3450113  17.2351673  53.1268903
  27.0400113  17.3001673  54.4618903  26.8320113  17.3491673  53.7078903
  17.1080113  16.8921673  64.7368903  17.4000113  16.8251673  65.5568903
  16.4820113  16.2871673  64.6918903  17.0590113  16.7931673  64.8518903
  12.0220113   3.0491673  66.7288903  12.0180113   3.6361673  67.3748903
  12.6160113   3.3611673  66.1718903  12.1090113   3.1821673  66.7418903
  24.3600113  13.3831673  67.2708903  24.3260113  13.7651673  68.0548903
  25.2140113  13.3411673  67.0998903  24.4810113  13.4331673  67.3618903
  21.4980113  13.5801673  52.0208903  21.3170113  14.1251673  52.6778903
  22.2640113  13.8701673  51.7198903  21.5840113  13.7041673  52.0738903
  12.9590113   2.6441673  55.6438903  12.8450113   1.7801673  55.6748903
  12.4840113   2.9381673  56.3138903  12.8720113   2.5601673  55.7468903
  15.1010113  15.0541673  63.8588903  14.4030113  14.5461673  63.9848903
  15.3610113  14.8491673  63.0508903  15.0360113  14.9491673  63.7578903
  22.2630113   3.8521673  54.3888903  21.7550113   3.1901673  54.1348903
  22.3150113   4.3561673  53.6788903  22.1960113   3.8291673  54.2468903
  22.8120113  16.5471673  64.7688903  23.5800113  16.4671673  64.3628903
  22.2290113  16.4261673  64.1308903  22.8390113  16.5171673  64.6148903
  29.0890113  17.1501673  57.6698903  28.6340113  17.8671673  57.8708903
  28.4750113  16.5791673  57.4278903  28.9310113  17.1721673  57.6638903
  20.8610113   3.1601673  58.8018903  20.9350113   3.7281673  58.1438903
  20.9820113   3.6521673  59.5118903  20.8890113   3.3171673  58.8098903
  26.0860113  12.9951673  57.2138903  26.7870113  12.5131673  57.4028903
  25.4260113  12.4261673  57.2588903  26.0920113  12.8401673  57.2478903
  16.4620113  13.9051673  66.4258903  17.3030113  13.9681673  66.2038903
  16.4250113  14.3021673  67.2018903  16.5810113  13.9731673  66.5078903
  18.4250113   9.4161673  61.1748903  18.5970113   9.2061673  62.0038903
  17.7700113   8.8821673  60.9588903  18.3540113   9.3061673  61.2658903
  24.6530113   3.3301673  64.6898903  24.5580113   3.6491673  65.4958903
  24.0600113   2.6911673  64.6518903  24.5510113   3.2821673  64.8038903
  19.1750113   9.3541673  63.7648903  19.2280113  10.2011673  63.9668903
  18.8900113   8.9841673  64.5018903  19.1410113   9.4241673  63.9028903
  25.3520113  10.0491673  62.8948903  24.8380113   9.6371673  63.4658903
  25.2260113  10.8931673  63.0758903  25.2580113  10.1131673  63.0058903
  11.9960113  13.7251673  69.9758903  12.7520113  14.0741673  70.2338903
  12.1730113  12.8721673  69.9188903  12.1340113  13.6501673  70.0058903
  28.3730113   3.5101673  65.8338903  29.1450113   3.2851673  66.1708903
  27.8980113   3.7271673  66.5338903  28.4170113   3.5091673  65.9868903
  15.9170113   2.7931673  58.8038903  16.1890113   2.3631673  58.0958903
  15.7410113   2.1571673  59.3748903  15.9310113   2.6361673  58.7838903
  28.6050113  10.4881673  53.0218903  28.7240113  10.2011673  53.8368903
  29.4120113  10.5091673  52.6918903  28.7410113  10.4491673  53.0938903
  15.7410113  10.2201673  58.3528903  16.5920113  10.1401673  58.1798903
  15.3840113   9.5381673  57.9408903  15.8140113  10.1071673  58.2658903
  14.5080113  16.9451673  59.5898903  13.8350113  16.4471673  59.3448903
  14.9110113  17.1301673  58.8388903  14.4680113  16.8991673  59.4428903
  14.0580113   3.8951673  61.8858903  14.9010113   4.1151673  61.8428903
  13.6690113   4.4681673  61.3548903  14.1250113   4.0121673  61.8008903
  30.8390113  14.9971673  67.2758903  30.1570113  15.3071673  66.8288903
  30.4700113  14.5391673  67.9208903  30.6830113  14.9751673  67.3048903
  26.5000113   7.0251673  52.6068903  26.2800113   7.7561673  52.1848903
  26.0520113   7.0761673  53.3538903  26.4010113   7.1401673  52.6548903
  18.1090113  10.2271673  56.5878903  18.8220113  10.7221673  56.6778903
  18.3310113   9.6601673  55.9618903  18.2470113  10.2161673  56.5088903
  12.2650113  11.8701673  59.9078903  11.5980113  12.3581673  60.1838903
  12.9450113  12.4151673  59.9368903  12.2670113  12.0221673  59.9528903
  19.9120113   5.5801673  70.0038903  19.4280113   6.1571673  70.4458903
  19.8840113   5.8751673  69.1828903  19.8360113   5.7091673  69.9478903
  31.0100113   6.2641673  64.6158903  31.2250113   5.4641673  64.3398903
  30.1600113   6.3241673  64.4268903  30.9160113   6.1551673  64.5468903
  12.3310113   8.5541673  55.0108903  12.1460113   7.7151673  55.1628903
  12.9900113   8.5181673  54.4408903  12.4010113   8.4251673  54.9488903
  22.6320113  13.9301673  58.9148903  22.1090113  14.5641673  58.6218903
  22.9420113  13.5661673  58.1858903  22.6000113  13.9701673  58.7638903
  12.5030113  12.7181673  54.5858903  13.0550113  13.2871673  54.9498903
  12.2710113  12.2031673  55.2508903  12.5500113  12.7261673  54.7378903
  16.7070113  11.7181673  61.6748903  17.1740113  12.0071673  62.3528903
  17.2790113  11.2401673  61.2208903  16.8610113  11.6901673  61.7078903
  25.1430113   3.7321673  59.4118903  25.4870113   3.8841673  60.1988903
  24.6900113   2.9941673  59.5248903  25.1270113   3.6451673  59.5448903
  12.3330113  11.1671673  52.2138903  13.0890113  10.7351673  52.2718903
  12.3480113  11.6991673  52.9048903  12.4470113  11.1821673  52.3248903
  13.2730113   9.3881673  60.2188903  13.7040113   9.2591673  59.4718903
  13.0680113  10.2361673  60.1928903  13.3060113   9.4941673  60.1048903
  19.6190113   2.9521673  53.8688903  19.6170113   2.8351673  53.0038903
  19.4380113   3.8001673  53.9608903  19.5920113   3.0601673  53.7548903
  28.6730113  15.3791673  65.3658903  28.0020113  15.8931673  65.5838903
  28.7360113  15.4791673  64.5018903  28.5830113  15.4701673  65.2708903
  17.3570113  12.9041673  58.5008903  17.4830113  13.7471673  58.6878903
  18.0250113  12.5051673  58.8968903  17.4750113  12.9701673  58.5868903
  15.4870113   6.3871673  68.3628903  14.9510113   5.8811673  68.8308903
  15.5070113   5.9971673  67.5828903  15.4100113   6.2541673  68.3168903
  15.9720113   5.7841673  53.5028903  15.8440113   5.3361673  54.2408903
  15.3900113   5.4421673  52.9508903  15.8670113   5.6671673  53.5308903
  16.1390113   7.6141673  60.1018903  15.3580113   7.5551673  59.7188903
  16.2110113   6.8621673  60.5388903  16.0340113   7.4951673  60.1098903
  16.5690113   7.3511673  63.5698903  16.5940113   6.6761673  63.0188903
  15.9230113   7.8471673  63.2578903  16.4780113   7.3241673  63.4428903
  26.4640113   5.0641673  61.9658903  25.8020113   5.3921673  62.4288903
  26.6510113   5.6981673  61.3968903  26.3940113   5.2061673  61.9498903
  20.6690113  16.1281673  62.9618903  20.3920113  15.4871673  62.4388903
  20.4610113  16.8541673  62.5238903  20.5980113  16.1411673  62.8198903
  24.6570113   3.0331673  55.4768903  25.1470113   3.7501673  55.3998903
  23.8670113   3.2941673  55.2138903  24.6130113   3.1771673  55.4268903
  14.3680113   8.7061673  69.1288903  14.3310113   9.2071673  68.4148903
  14.6990113   7.9541673  68.8338903  14.4110113   8.6681673  68.9798903
  25.9710113  10.9111673  67.3868903  26.4550113  11.6291673  67.4848903
  26.3650113  10.4841673  66.7358903  26.1010113  10.9541673  67.3048903
  20.2670113  13.7561673  68.5638903  20.6210113  13.5781673  69.3408903
  19.8310113  13.0271673  68.3648903  20.2550113  13.6221673  68.6498903
  21.2390113   4.5031673  61.2018903  21.7190113   5.2021673  61.4098903
  21.6120113   3.8561673  61.6528903  21.3650113   4.5111673  61.2988903
  23.4280113   7.6721673  53.4758903  23.4200113   8.3941673  52.9858903
  22.7890113   7.8071673  54.0528903  23.3330113   7.7991673  53.4888903
  28.4000113  11.5421673  57.4568903  28.7560113  11.1921673  58.1718903
  28.3920113  10.8811673  56.8868903  28.4520113  11.3921673  57.4778903
  24.4450113  14.6081673  61.3008903  23.8420113  14.3121673  60.7438903
  24.9900113  15.0601673  60.7918903  24.4360113  14.6311673  61.1428903
  24.4580113  11.4591673  60.7008903  23.6610113  11.6831673  60.9748903
  24.7160113  10.8651673  61.2858903  24.3780113  11.4041673  60.8278903
  18.3500113  16.2711673  55.1488903  18.2030113  15.4951673  55.5198903
  19.0390113  16.1241673  54.6338903  18.4300113  16.1341673  55.1278903
  20.6420113  15.7871673  53.5508903  21.2640113  15.9501673  54.1408903
  20.6780113  16.4781673  53.0188903  20.7390113  15.9131673  53.5598903
  27.7180113   9.4571673  65.5468903  27.7730113   9.5821673  64.6848903
  28.4710113   9.7771673  65.8488903  27.8370113   9.5221673  65.4638903
  23.9090113  14.8061673  69.8238903  24.0730113  15.0891673  70.6328903
  24.1720113  15.4671673  69.3188903  23.9720113  14.9461673  69.8688903
  15.1430113   8.3211673  54.3798903  15.4670113   7.5421673  54.1578903
  15.7890113   8.6891673  54.8348903  15.2860113   8.2601673  54.4138903
  23.4490113   9.2631673  65.1468903  23.2940113   9.8731673  65.7508903
  23.9830113   8.7051673  65.5528903  23.5050113   9.2711673  65.2958903
  21.8330113   7.6631673  55.8048903  21.8920113   8.3131673  56.3838903
  21.6440113   6.9671673  56.2958903  21.8140113   7.6561673  55.9628903
  27.0590113  11.9921673  61.6738903  26.5800113  12.2901673  61.0078903
  26.7030113  11.2161673  61.8518903  26.9360113  11.9211673  61.6018903
  16.3290113   2.1801673  52.3168903  15.8180113   2.2331673  51.6108903
  17.1130113   2.4201673  52.0208903  16.3690113   2.2231673  52.1688903
  21.0560113   9.7101673  60.2358903  20.2090113   9.5161673  60.3168903
  21.3800113   9.5451673  61.0288903  20.9780113   9.6571673  60.3648903
  17.8080113  16.4401673  51.1218903  18.2470113  15.7431673  51.4098903
  18.0150113  17.0641673  51.6948903  17.9040113  16.4291673  51.2488903
  14.9040113   9.4031673  62.5518903  15.6260113   9.8911673  62.5148903
  14.6340113   9.3731673  61.7228903  14.9710113   9.4711673  62.4238903
  18.1340113   4.5741673  59.2868903  18.9800113   4.3841673  59.3848903
  17.7640113   3.7971673  59.1488903  18.2040113   4.4311673  59.2808903
  30.7510113  16.1581673  53.6138903  31.4450113  15.6911673  53.3658903
  30.2120113  15.5601673  53.9508903  30.7740113  16.0001673  53.6268903
  12.9550113   5.9121673  55.9418903  13.4440113   5.6201673  56.6028903
  13.0840113   5.3191673  55.3148903  13.0460113   5.7811673  55.9468903
  27.9900113   8.9341673  62.7928903  27.9830113   8.1581673  63.1908903
  27.1490113   9.1681673  62.7858903  27.8650113   8.8541673  62.8508903
  17.4800113   7.3461673  51.4278903  16.8700113   6.9411673  51.9018903
  17.0940113   7.4641673  50.6548903  17.3330113   7.3031673  51.3838903
  14.2990113  10.4551673  66.8298903  13.8780113   9.9371673  66.2688903
  13.9470113  11.2411673  66.6868903  14.1850113  10.4951673  66.7258903
  29.2460113   9.0051673  60.2298903  28.9600113   9.4061673  60.9498903
  30.1060113   8.9431673  60.3568903  29.3310113   9.0551673  60.3548903
  18.9350113   5.8071673  54.1378903  19.2070113   6.6331673  54.2048903
  18.0720113   5.8821673  54.0418903  18.8480113   5.9401673  54.1328903
  26.9080113   2.9291673  68.7698903  26.3830113   3.3881673  69.2938903
  26.5470113   2.1341673  68.7638903  26.7770113   2.8791673  68.8458903
  12.4150113   1.7771673  60.6738903  12.4590113   2.1211673  59.8728903
  13.1700113   2.0141673  61.0408903  12.5330113   1.8631673  60.6098903
  30.3770113  14.6381673  60.7588903  30.6670113  14.8951673  59.9778903
  31.0720113  14.7341673  61.2778903  30.5230113  14.6901673  60.7198903
  25.4000113   6.4981673  68.8458903  25.4730113   6.6021673  69.7088903
  24.7660113   7.0561673  68.6248903  25.3170113   6.5961673  68.9408903
  27.6680113   6.8171673  67.2108903  27.9870113   7.6031673  67.4138903
  27.2980113   6.5471673  67.9538903  27.6610113   6.8931673  67.3508903
  26.9820113  13.2411673  52.7408903  27.3160113  12.4351673  52.7758903
  26.2270113  13.1691673  53.1708903  26.9200113  13.1111673  52.8098903
  27.4640113   5.0751673  58.3998903  26.7190113   4.7521673  58.7178903
  27.4660113   5.9011673  58.6798903  27.3540113   5.1491673  58.4878903
  30.3660113   7.3591673  69.9458903  30.3140113   7.0181673  69.1448903
  31.1030113   7.8261673  69.9238903  30.4670113   7.3781673  69.8238903
  29.9040113  11.0351673  66.1518903  30.5320113  10.4861673  65.8958903
  29.8430113  11.6001673  65.4898903  29.9880113  11.0381673  66.0158903
  24.3560113  11.1161673  52.1438903  25.0400113  10.6021673  51.9748903
  23.9390113  11.1621673  51.3788903  24.3950113  11.0471673  52.0058903
  19.0380113  12.2661673  63.4478903  18.7400113  12.8581673  64.0148903
  19.0930113  12.7081673  62.6988903  19.0020113  12.4191673  63.4208903
  17.0170113  11.2161673  66.8458903  16.2110113  10.9261673  67.0128903
  16.9280113  12.0841673  66.8518903  16.8850113  11.3011673  66.8708903
  21.5540113   8.6891673  62.9388903  22.0300113   9.0631673  63.5668903
  20.7310113   8.8231673  63.1978903  21.5030113   8.7641673  63.0698903
  18.2640113   4.2921673  65.6798903  18.4250113   3.5481673  66.1068903
  18.2190113   4.0431673  64.8448903  18.2810113   4.1451673  65.6198903
  20.8180113  16.0821673  58.1668903  21.3640113  16.7611673  58.2208903
  20.4680113  16.1641673  57.3718903  20.8470113  16.1951673  58.0568903
  19.0010113  14.3101673  61.5558903  18.3770113  14.8921673  61.3738903
  19.2490113  14.0241673  60.7698903  18.9450113  14.3541673  61.4128903
  23.3100113  10.9441673  68.5448903  24.0670113  11.2301673  68.2188903
  22.7630113  10.9961673  67.8668903  23.3410113  10.9941673  68.3958903
  27.2190113  13.4941673  67.0488903  27.5650113  13.7641673  67.8028903
  27.5130113  14.0761673  66.4688903  27.3140113  13.6201673  67.0748903
  29.0820113   5.6401673  52.3878903  29.4600113   6.3171673  51.9878903
  28.2400113   5.8641673  52.4188903  29.0130113   5.7731673  52.3328903
  20.5950113   9.0861673  51.4708903  19.7900113   8.9091673  51.1858903
  20.5620113   9.9371673  51.6628903  20.4710113   9.1851673  51.4578903
  16.5250113   5.1531673  61.6208903  16.9650113   5.0501673  60.8748903
  17.0700113   4.8401673  62.2258903  16.6700113   5.0921673  61.5998903
  24.5410113   4.2551673  67.2128903  23.8930113   4.7251673  67.5608903
  25.1060113   4.1661673  67.8718903  24.5290113   4.3111673  67.3618903
  24.2290113   5.7921673  63.5108903  24.5310113   6.2121673  64.2138903
  24.2650113   4.9521673  63.7428903  24.2790113   5.7301673  63.6488903
  21.6540113  15.9591673  67.4358903  22.1320113  15.3591673  67.0198903
  21.3030113  15.5161673  68.1008903  21.6730113  15.8051673  67.4728903
  26.7770113   5.2391673  55.7628903  26.9840113   5.0381673  56.5868903
  27.5330113   5.5071673  55.4208903  26.9190113   5.2491673  55.8338903
  28.2420113   9.2661673  55.6168903  28.7180113   8.5371673  55.5688903
  27.4210113   8.9801673  55.5408903  28.1910113   9.1161673  55.5978903
  21.7130113  11.1781673  66.4558903  20.9180113  11.1141673  66.8068903
  21.7840113  12.0251673  66.2608903  21.6060113  11.2931673  66.4788903
  17.5430113  17.3851673  61.7728903  17.5540113  17.4441673  62.6428903
  17.1180113  16.6381673  61.6228903  17.4820113  17.2831673  61.8788903
  15.7010113   3.2801673  54.9278903  15.8270113   2.9511673  54.1298903
  14.8890113   3.0311673  55.1268903  15.6000113   3.1951673  54.8398903
  24.4580113  10.4331673  57.9718903  24.5340113  10.7741673  58.7708903
  24.6270113   9.5861673  58.0928903  24.4940113  10.3581673  58.1078903
  21.9800113   9.7071673  57.5368903  21.6820113   9.3921673  58.2938903
  22.6750113  10.1801673  57.7718903  22.0390113   9.7301673  57.6838903
  22.2020113  13.8251673  65.5638903  22.8890113  13.7111673  66.0888903
  22.3360113  14.6161673  65.2198903  22.3230113  13.9251673  65.5908903
  30.3780113   6.4341673  67.3748903  29.5230113   6.3121673  67.5008903
  30.5310113   6.0391673  66.6118903  30.2740113   6.3571673  67.2808903
  24.8910113   7.0991673  65.9508903  24.6360113   6.3801673  66.3728903
  25.7120113   7.2151673  66.2208903  24.9750113   7.0101673  66.0528903
  14.3070113  16.8831673  67.2148903  13.6530113  16.3141673  67.3128903
  13.9320113  17.6561673  67.3658903  14.1550113  16.9131673  67.2518903
  22.8250113   8.2891673  69.1378903  23.1480113   8.9751673  68.7058903
  22.1210113   8.6121673  69.5398903  22.7680113   8.4381673  69.1328903
  25.9090113  16.6631673  60.0668903  25.4580113  17.3061673  60.4458903
  26.6170113  16.5841673  60.5718903  25.9470113  16.7461673  60.1978903
  22.6100113  11.7531673  62.9968903  21.9160113  12.1551673  63.3398903
  23.2870113  12.1861673  63.3358903  22.6070113  11.8761673  63.0978903
  27.9870113  14.3461673  69.5768903  28.7630113  13.9561673  69.6598903
  27.5180113  14.0101673  70.2318903  28.0320113  14.2391673  69.6858903
  15.6780113   5.2911673  65.3438903  16.0530113   5.9101673  64.8568903
  16.3520113   4.8171673  65.6288903  15.8330113   5.3131673  65.3138903
  13.4530113   3.7391673  64.6188903  13.5300113   3.5701673  63.7658903
  14.1990113   4.1451673  64.8158903  13.5740113   3.7741673  64.5218903
  29.0120113   6.3791673  55.0588903  29.1150113   6.3211673  54.1948903
  29.7530113   6.0471673  55.3768903  29.1370113   6.3221673  54.9778903
  22.9320113  13.3441673  56.1658903  22.7270113  14.1771673  56.0068903
  22.1570113  12.9621673  56.2878903  22.7870113  13.4111673  56.1608903
  28.1140113   6.5251673  64.4148903  28.1120113   5.6621673  64.5388903
  28.1810113   6.8491673  65.2218903  28.1240113   6.4451673  64.5518903
  12.8500113   8.9651673  64.8428903  13.1700113   9.1841673  64.0618903
  12.7500113   8.1001673  64.7878903  12.8820113   8.8701673  64.7198903
  14.3060113   4.9011673  51.4608903  13.6340113   4.9151673  52.0168903
  14.4010113   4.0531673  51.2768903  14.2210113   4.7781673  51.5158903
  18.2940113  13.6061673  52.5748903  18.7350113  13.6861673  53.3228903
  17.4890113  13.3901673  52.8328903  18.2400113  13.5861673  52.7238903
  26.5850113   2.0311673  61.8508903  27.4400113   2.1301673  61.9958903
  26.2160113   2.5841673  62.4158903  26.6570113   2.1281673  61.9558903
  17.6130113   8.2571673  66.2278903  17.2170113   9.0311673  66.3028903
  17.2070113   7.8841673  65.5518903  17.4950113   8.3161673  66.1388903
  26.8890113   7.3111673  60.3418903  27.5550113   7.8521673  60.5018903
  26.5440113   7.6221673  59.6028903  26.9360113   7.4371673  60.2568903
  27.2020113  15.3771673  56.1488903  27.0280113  14.7231673  56.6988903
  27.9150113  15.1061673  55.7258903  27.2820113  15.2401673  56.1678903
  15.6230113  12.6761673  53.1758903  15.3790113  12.3691673  53.9558903
  15.5900113  11.9731673  52.6598903  15.5820113  12.5271673  53.2148903
  18.4420113  10.9211673  51.9188903  17.6240113  10.6531673  52.0588903
  18.4140113  11.7731673  52.1038903  18.3170113  11.0081673  51.9668903
  24.8770113  12.8301673  63.8398903  25.0830113  13.1311673  64.6318903
  24.8160113  13.5521673  63.3548903  24.8980113  12.9811673  63.8848903
  24.4110113  17.0441673  68.0858903  23.6580113  17.0261673  67.6448903
  24.5790113  17.8961673  68.1698903  24.3250113  17.1671673  68.0328903
  19.6480113   6.3111673  67.2558903  19.3260113   5.7351673  66.6858903
  19.2890113   7.0661673  67.0098903  19.5480113   6.3371673  67.1358903
  29.6890113  11.4691673  63.2978903  29.6570113  10.6071673  63.1628903
  28.9960113  11.7711673  62.8638903  29.5820113  11.3861673  63.2138903
  18.0830113  16.6671673  67.5038903  18.1240113  16.7931673  68.3668903
  18.7340113  16.1071673  67.3478903  18.1850113  16.6031673  67.6088903
  27.7940113  14.7291673  62.0948903  28.3210113  14.6461673  61.4038903
  27.4030113  13.9511673  62.1488903  27.8140113  14.6021673  62.0008903
  15.6760113  15.0501673  68.8638903  16.2710113  15.4811673  69.3358903
  15.3120113  15.6741673  68.3748903  15.7100113  15.2061673  68.8608903
  23.6670113   5.9811673  58.7958903  24.2180113   5.3741673  59.0958903
  23.2420113   6.2441673  59.5108903  23.6860113   5.9301673  58.9448903
  13.9150113   4.6311673  58.2818903  13.5470113   4.9331673  59.0128903
  14.4490113   4.0021673  58.5658903  13.9390113   4.5831673  58.4318903
  13.6030113  13.0391673  65.7928903  13.0290113  13.4551673  66.3018903
  14.3360113  13.5041673  65.8878903  13.6270113  13.1691673  65.8818903
  25.6370113   7.8121673  55.3578903  25.7050113   6.9621673  55.5388903
  24.8140113   7.8981673  55.0798903  25.5250113   7.6991673  55.3438903
  15.3890113  16.3061673  54.5678903  15.2440113  16.4621673  53.7218903
  16.2550113  16.3851673  54.6458903  15.4960113  16.3411673  54.4548903
  19.5560113   8.7031673  54.2958903  19.6560113   8.8421673  53.4408903
  20.3740113   8.6431673  54.5918903  19.6910113   8.7141673  54.2128903
  28.7160113  16.7671673  51.7758903  29.3530113  16.6331673  52.3568903
  28.3750113  15.9731673  51.6588903  28.7600113  16.6301673  51.8438903
  28.9110113   9.1851673  68.5088903  29.5450113   9.0151673  69.0828903
  29.3280113   9.5881673  67.8568903  29.0660113   9.2201673  68.4978903
  24.7910113  13.0321673  54.0978903  24.5400113  12.9041673  54.9238903
  24.4740113  12.3371673  53.6768903  24.7070113  12.9111673  54.1578903
  29.5360113   3.7491673  69.2468903  29.3400113   4.3931673  69.8018903
  28.8140113   3.2591673  69.2388903  29.4010113   3.7721673  69.3278903
  29.4350113   4.6901673  62.2178903  28.6020113   4.9401673  62.1458903
  29.3790113   3.8501673  62.4468903  29.3040113   4.6031673  62.2408903
  26.3220113   9.2961673  69.8638903  27.1930113   9.2601673  69.8278903
  26.1030113   9.7161673  69.1318903  26.4190113   9.3521673  69.7508903
  16.0760113  15.1211673  61.0448903  15.9970113  14.3111673  60.7288903
  15.6320113  15.6081673  60.4728903  15.9990113  15.0731673  60.9138903
  21.6770113  11.2401673  53.5278903  22.3940113  10.8931673  53.1718903
  21.6430113  12.0401673  53.1798903  21.7780113  11.3071673  53.4238903
  13.6480113  17.3651673  64.6258903  14.1410113  17.3091673  65.3438903
  13.8360113  16.6321673  64.1908903  13.7490113  17.2481673  64.6678903
  22.8950113   6.7971673  42.4376493  22.3710113   7.3931673  42.8006493
  23.2920113   6.4291673  43.1216493  22.8760113   6.8311673  42.5926493
  12.7640113  10.9371673  37.8936493  12.3230113  11.0551673  38.6366493
  12.4810113  10.1621673  37.6086493  12.6570113  10.8401673  37.9616493
  29.0390113  14.2381673  35.4086493  29.7400113  13.7191673  35.4046493
  28.4520113  13.7931673  34.9396493  29.0560113  14.0951673  35.3386493
  12.5070113   4.7291673  34.4006493  11.7290113   4.8911673  34.0406493
  12.5460113   3.8581673  34.4226493  12.3980113   4.6241673  34.3506493
  15.6460113   9.9921673  33.0726493  15.2540113   9.6211673  32.3866493
  15.5660113   9.3941673  33.7016493  15.5760113   9.8491673  33.0636493
  25.5660113   7.8641673  39.1136493  25.6460113   7.8681673  38.2446493
  24.9820113   7.2321673  39.2626493  25.4910113   7.7711673  39.0076493
  15.2730113  11.6331673  36.9726493  15.8810113  11.4631673  37.5756493
  14.5220113  11.4931673  37.3936493  15.2520113  11.5871673  37.1236493
  14.1640113  14.7241673  33.0496493  14.6310113  14.8081673  32.3176493
  14.6190113  14.1461673  33.5186493  14.3000113  14.6511673  33.0106493
  12.7040113  13.6721673  44.1486493  12.8330113  13.3921673  44.9646493
  12.0940113  13.1311673  43.8396493  12.6330113  13.5511673  44.2236493
  19.2780113  11.1971673  49.2156493  19.0420113  11.1941673  50.0556493
  18.5300113  11.0491673  48.7916493  19.1320113  11.1741673  49.2766493
  14.1500113   8.1931673  38.3506493  13.6880113   7.8011673  37.7236493
  14.8500113   7.6801673  38.4426493  14.1850113   8.0601673  38.2716493
  18.6580113   3.8031673  43.6976493  19.3360113   3.8211673  43.1486493
  18.6130113   2.9671673  43.9426493  18.7510113   3.6821673  43.6526493
  19.2600113  14.3891673  46.4786493  19.3980113  15.1491673  46.0716493
  20.0510113  14.0241673  46.5056493  19.3970113  14.4481673  46.4226493
  16.1510113   6.2931673  38.3736493  16.9680113   6.1061673  38.6166493
  15.6740113   5.6791673  38.7696493  16.2010113   6.1751673  38.4686493
  20.3550113  12.2741673  40.9836493  20.7030113  11.4751673  41.0136493
  21.0200113  12.7781673  40.7286493  20.5050113  12.2301673  40.9506493
  20.4120113  11.7231673  37.1946493  20.7430113  11.0791673  37.6806493
  20.6520113  11.5121673  36.3836493  20.4960113  11.5971673  37.1466493
  22.3800113   5.8541673  48.5336493  21.5320113   5.7551673  48.3556493
  22.4090113   6.5991673  48.9876493  22.2590113   5.9501673  48.5746493
  24.4000113   3.4551673  32.1616493  23.9500113   4.1361673  32.4686493
  24.5140113   2.9511673  32.8646493  24.3510113   3.4811673  32.3106493
  12.6060113   5.9541673  41.3636493  12.3500113   6.7851673  41.2886493
  11.9420113   5.5711673  41.7806493  12.4700113   6.0201673  41.4146493
  12.5160113  15.6641673  39.2636493  11.9240113  16.2221673  38.9506493
  12.9420113  15.3951673  38.5516493  12.4920113  15.7061673  39.1126493
  18.3560113  13.5081673  36.7436493  17.7770113  13.2331673  37.3356493
  18.9800113  12.8991673  36.7686493  18.3630113  13.3781673  36.8346493
  24.4990113  15.7961673  34.2656493  25.2260113  16.2681673  34.3676493
  24.7280113  15.0021673  34.5456493  24.6410113  15.7491673  34.3226493
  22.6670113  16.1881673  36.2556493  22.8810113  16.7151673  36.9176493
  23.4340113  16.0141673  35.8766493  22.8120113  16.2401673  36.2976493
  18.9410113   2.9041673  51.1526493  19.0580113   2.4501673  50.4166493
  19.2290113   3.7021673  50.9496493  19.0010113   2.9551673  51.0136493
  14.0610113  14.3341673  37.1946493  14.7170113  13.7591673  37.2096493
  14.4500113  15.0831673  36.9736493  14.2160113  14.3591673  37.1646493
  29.7940113   3.4281673  38.4566493  29.4480113   4.1061673  38.8826493
  29.1580113   2.8301673  38.4726493  29.6490113   3.4401673  38.5216493
  25.1060113  16.1981673  44.5606493  25.8500113  16.6541673  44.5506493
  24.9850113  15.9841673  43.7236493  25.1980113  16.2341673  44.4356493
  14.6740113   2.5011673  50.1366493  13.8960113   2.1111673  50.0646493
  15.1650113   2.0891673  49.5456493  14.6310113   2.3821673  50.0386493
  14.8790113  12.8211673  40.6946493  15.3020113  12.4651673  40.0206493
  15.2030113  12.3991673  41.3866493  14.9890113  12.7061673  40.6976493
  18.1100113  15.6731673  39.9906493  18.9540113  15.7771673  39.7956493
  17.8130113  16.4911673  40.0586493  18.1910113  15.8091673  39.9716493
  21.9170113   5.0701673  38.0776493  22.2040113   4.8381673  37.2876493
  22.6490113   5.1491673  38.5466493  22.0670113   5.0471673  38.0306493
  22.6390113   5.4091673  33.1986493  22.9200113   6.1971673  33.4476493
  21.8630113   5.5741673  32.8356493  22.5660113   5.5501673  33.1816493
  26.6800113  17.3831673  34.6656493  27.3450113  17.2351673  34.1206493
  27.0400113  17.3001673  35.4556493  26.8320113  17.3491673  34.7016493
  17.1080113  16.8921673  45.7306493  17.4000113  16.8251673  46.5506493
  16.4820113  16.2871673  45.6856493  17.0590113  16.7931673  45.8456493
  12.0220113   3.0491673  47.7226493  12.0180113   3.6361673  48.3686493
  12.6160113   3.3611673  47.1656493  12.1090113   3.1821673  47.7356493
  24.3600113  13.3831673  48.2646493  24.3260113  13.7651673  49.0486493
  25.2140113  13.3411673  48.0936493  24.4810113  13.4331673  48.3556493
  21.4980113  13.5801673  33.0146493  21.3170113  14.1251673  33.6716493
  22.2640113  13.8701673  32.7136493  21.5840113  13.7041673  33.0676493
  12.9590113   2.6441673  36.6376493  12.8450113   1.7801673  36.6686493
  12.4840113   2.9381673  37.3076493  12.8720113   2.5601673  36.7406493
  15.1010113  15.0541673  44.8526493  14.4030113  14.5461673  44.9786493
  15.3610113  14.8491673  44.0446493  15.0360113  14.9491673  44.7516493
  22.2630113   3.8521673  35.3826493  21.7550113   3.1901673  35.1286493
  22.3150113   4.3561673  34.6726493  22.1960113   3.8291673  35.2406493
  22.8120113  16.5471673  45.7626493  23.5800113  16.4671673  45.3566493
  22.2290113  16.4261673  45.1246493  22.8390113  16.5171673  45.6086493
  29.0890113  17.1501673  38.6636493  28.6340113  17.8671673  38.8646493
  28.4750113  16.5791673  38.4216493  28.9310113  17.1721673  38.6576493
  20.8610113   3.1601673  39.7956493  20.9350113   3.7281673  39.1376493
  20.9820113   3.6521673  40.5056493  20.8890113   3.3171673  39.8036493
  26.0860113  12.9951673  38.2076493  26.7870113  12.5131673  38.3966493
  25.4260113  12.4261673  38.2526493  26.0920113  12.8401673  38.2416493
  16.4620113  13.9051673  47.4196493  17.3030113  13.9681673  47.1976493
  16.4250113  14.3021673  48.1956493  16.5810113  13.9731673  47.5016493
  18.4250113   9.4161673  42.1686493  18.5970113   9.2061673  42.9976493
  17.7700113   8.8821673  41.9526493  18.3540113   9.3061673  42.2596493
  24.6530113   3.3301673  45.6836493  24.5580113   3.6491673  46.4896493
  24.0600113   2.6911673  45.6456493  24.5510113   3.2821673  45.7976493
  19.1750113   9.3541673  44.7586493  19.2280113  10.2011673  44.9606493
  18.8900113   8.9841673  45.4956493  19.1410113   9.4241673  44.8966493
  25.3520113  10.0491673  43.8886493  24.8380113   9.6371673  44.4596493
  25.2260113  10.8931673  44.0696493  25.2580113  10.1131673  43.9996493
  11.9960113  13.7251673  50.9696493  12.7520113  14.0741673  51.2276493
  12.1730113  12.8721673  50.9126493  12.1340113  13.6501673  50.9996493
  28.3730113   3.5101673  46.8276493  29.1450113   3.2851673  47.1646493
  27.8980113   3.7271673  47.5276493  28.4170113   3.5091673  46.9806493
  15.9170113   2.7931673  39.7976493  16.1890113   2.3631673  39.0896493
  15.7410113   2.1571673  40.3686493  15.9310113   2.6361673  39.7776493
  28.6050113  10.4881673  34.0156493  28.7240113  10.2011673  34.8306493
  29.4120113  10.5091673  33.6856493  28.7410113  10.4491673  34.0876493
  15.7410113  10.2201673  39.3466493  16.5920113  10.1401673  39.1736493
  15.3840113   9.5381673  38.9346493  15.8140113  10.1071673  39.2596493
  14.5080113  16.9451673  40.5836493  13.8350113  16.4471673  40.3386493
  14.9110113  17.1301673  39.8326493  14.4680113  16.8991673  40.4366493
  14.0580113   3.8951673  42.8796493  14.9010113   4.1151673  42.8366493
  13.6690113   4.4681673  42.3486493  14.1250113   4.0121673  42.7946493
  30.8390113  14.9971673  48.2696493  30.1570113  15.3071673  47.8226493
  30.4700113  14.5391673  48.9146493  30.6830113  14.9751673  48.2986493
  26.5000113   7.0251673  33.6006493  26.2800113   7.7561673  33.1786493
  26.0520113   7.0761673  34.3476493  26.4010113   7.1401673  33.6486493
  18.1090113  10.2271673  37.5816493  18.8220113  10.7221673  37.6716493
  18.3310113   9.6601673  36.9556493  18.2470113  10.2161673  37.5026493
  12.2650113  11.8701673  40.9016493  11.5980113  12.3581673  41.1776493
  12.9450113  12.4151673  40.9306493  12.2670113  12.0221673  40.9466493
  19.9120113   5.5801673  50.9976493  19.4280113   6.1571673  51.4396493
  19.8840113   5.8751673  50.1766493  19.8360113   5.7091673  50.9416493
  31.0100113   6.2641673  45.6096493  31.2250113   5.4641673  45.3336493
  30.1600113   6.3241673  45.4206493  30.9160113   6.1551673  45.5406493
  12.3310113   8.5541673  36.0046493  12.1460113   7.7151673  36.1566493
  12.9900113   8.5181673  35.4346493  12.4010113   8.4251673  35.9426493
  22.6320113  13.9301673  39.9086493  22.1090113  14.5641673  39.6156493
  22.9420113  13.5661673  39.1796493  22.6000113  13.9701673  39.7576493
  12.5030113  12.7181673  35.5796493  13.0550113  13.2871673  35.9436493
  12.2710113  12.2031673  36.2446493  12.5500113  12.7261673  35.7316493
  16.7070113  11.7181673  42.6686493  17.1740113  12.0071673  43.3466493
  17.2790113  11.2401673  42.2146493  16.8610113  11.6901673  42.7016493
  25.1430113   3.7321673  40.4056493  25.4870113   3.8841673  41.1926493
  24.6900113   2.9941673  40.5186493  25.1270113   3.6451673  40.5386493
  12.3330113  11.1671673  33.2076493  13.0890113  10.7351673  33.2656493
  12.3480113  11.6991673  33.8986493  12.4470113  11.1821673  33.3186493
  13.2730113   9.3881673  41.2126493  13.7040113   9.2591673  40.4656493
  13.0680113  10.2361673  41.1866493  13.3060113   9.4941673  41.0986493
  19.6190113   2.9521673  34.8626493  19.6170113   2.8351673  33.9976493
  19.4380113   3.8001673  34.9546493  19.5920113   3.0601673  34.7486493
  28.6730113  15.3791673  46.3596493  28.0020113  15.8931673  46.5776493
  28.7360113  15.4791673  45.4956493  28.5830113  15.4701673  46.2646493
  17.3570113  12.9041673  39.4946493  17.4830113  13.7471673  39.6816493
  18.0250113  12.5051673  39.8906493  17.4750113  12.9701673  39.5806493
  15.4870113   6.3871673  49.3566493  14.9510113   5.8811673  49.8246493
  15.5070113   5.9971673  48.5766493  15.4100113   6.2541673  49.3106493
  15.9720113   5.7841673  34.4966493  15.8440113   5.3361673  35.2346493
  15.3900113   5.4421673  33.9446493  15.8670113   5.6671673  34.5246493
  16.1390113   7.6141673  41.0956493  15.3580113   7.5551673  40.7126493
  16.2110113   6.8621673  41.5326493  16.0340113   7.4951673  41.1036493
  16.5690113   7.3511673  44.5636493  16.5940113   6.6761673  44.0126493
  15.9230113   7.8471673  44.2516493  16.4780113   7.3241673  44.4366493
  26.4640113   5.0641673  42.9596493  25.8020113   5.3921673  43.4226493
  26.6510113   5.6981673  42.3906493  26.3940113   5.2061673  42.9436493
  20.6690113  16.1281673  43.9556493  20.3920113  15.4871673  43.4326493
  20.4610113  16.8541673  43.5176493  20.5980113  16.1411673  43.8136493
  24.6570113   3.0331673  36.4706493  25.1470113   3.7501673  36.3936493
  23.8670113   3.2941673  36.2076493  24.6130113   3.1771673  36.4206493
  14.3680113   8.7061673  50.1226493  14.3310113   9.2071673  49.4086493
  14.6990113   7.9541673  49.8276493  14.4110113   8.6681673  49.9736493
  25.9710113  10.9111673  48.3806493  26.4550113  11.6291673  48.4786493
  26.3650113  10.4841673  47.7296493  26.1010113  10.9541673  48.2986493
  20.2670113  13.7561673  49.5576493  20.6210113  13.5781673  50.3346493
  19.8310113  13.0271673  49.3586493  20.2550113  13.6221673  49.6436493
  21.2390113   4.5031673  42.1956493  21.7190113   5.2021673  42.4036493
  21.6120113   3.8561673  42.6466493  21.3650113   4.5111673  42.2926493
  23.4280113   7.6721673  34.4696493  23.4200113   8.3941673  33.9796493
  22.7890113   7.8071673  35.0466493  23.3330113   7.7991673  34.4826493
  28.4000113  11.5421673  38.4506493  28.7560113  11.1921673  39.1656493
  28.3920113  10.8811673  37.8806493  28.4520113  11.3921673  38.4716493
  24.4450113  14.6081673  42.2946493  23.8420113  14.3121673  41.7376493
  24.9900113  15.0601673  41.7856493  24.4360113  14.6311673  42.1366493
  24.4580113  11.4591673  41.6946493  23.6610113  11.6831673  41.9686493
  24.7160113  10.8651673  42.2796493  24.3780113  11.4041673  41.8216493
  18.3500113  16.2711673  36.1426493  18.2030113  15.4951673  36.5136493
  19.0390113  16.1241673  35.6276493  18.4300113  16.1341673  36.1216493
  20.6420113  15.7871673  34.5446493  21.2640113  15.9501673  35.1346493
  20.6780113  16.4781673  34.0126493  20.7390113  15.9131673  34.5536493
  27.7180113   9.4571673  46.5406493  27.7730113   9.5821673  45.6786493
  28.4710113   9.7771673  46.8426493  27.8370113   9.5221673  46.4576493
  23.9090113  14.8061673  50.8176493  24.0730113  15.0891673  51.6266493
  24.1720113  15.4671673  50.3126493  23.9720113  14.9461673  50.8626493
  15.1430113   8.3211673  35.3736493  15.4670113   7.5421673  35.1516493
  15.7890113   8.6891673  35.8286493  15.2860113   8.2601673  35.4076493
  23.4490113   9.2631673  46.1406493  23.2940113   9.8731673  46.7446493
  23.9830113   8.7051673  46.5466493  23.5050113   9.2711673  46.2896493
  21.8330113   7.6631673  36.7986493  21.8920113   8.3131673  37.3776493
  21.6440113   6.9671673  37.2896493  21.8140113   7.6561673  36.9566493
  27.0590113  11.9921673  42.6676493  26.5800113  12.2901673  42.0016493
  26.7030113  11.2161673  42.8456493  26.9360113  11.9211673  42.5956493
  16.3290113   2.1801673  33.3106493  15.8180113   2.2331673  32.6046493
  17.1130113   2.4201673  33.0146493  16.3690113   2.2231673  33.1626493
  21.0560113   9.7101673  41.2296493  20.2090113   9.5161673  41.3106493
  21.3800113   9.5451673  42.0226493  20.9780113   9.6571673  41.3586493
  17.8080113  16.4401673  32.1156493  18.2470113  15.7431673  32.4036493
  18.0150113  17.0641673  32.6886493  17.9040113  16.4291673  32.2426493
  14.9040113   9.4031673  43.5456493  15.6260113   9.8911673  43.5086493
  14.6340113   9.3731673  42.7166493  14.9710113   9.4711673  43.4176493
  18.1340113   4.5741673  40.2806493  18.9800113   4.3841673  40.3786493
  17.7640113   3.7971673  40.1426493  18.2040113   4.4311673  40.2746493
  30.7510113  16.1581673  34.6076493  31.4450113  15.6911673  34.3596493
  30.2120113  15.5601673  34.9446493  30.7740113  16.0001673  34.6206493
  12.9550113   5.9121673  36.9356493  13.4440113   5.6201673  37.5966493
  13.0840113   5.3191673  36.3086493  13.0460113   5.7811673  36.9406493
  27.9900113   8.9341673  43.7866493  27.9830113   8.1581673  44.1846493
  27.1490113   9.1681673  43.7796493  27.8650113   8.8541673  43.8446493
  17.4800113   7.3461673  32.4216493  16.8700113   6.9411673  32.8956493
  17.0940113   7.4641673  31.6486493  17.3330113   7.3031673  32.3776493
  14.2990113  10.4551673  47.8236493  13.8780113   9.9371673  47.2626493
  13.9470113  11.2411673  47.6806493  14.1850113  10.4951673  47.7196493
  29.2460113   9.0051673  41.2236493  28.9600113   9.4061673  41.9436493
  30.1060113   8.9431673  41.3506493  29.3310113   9.0551673  41.3486493
  18.9350113   5.8071673  35.1316493  19.2070113   6.6331673  35.1986493
  18.0720113   5.8821673  35.0356493  18.8480113   5.9401673  35.1266493
  26.9080113   2.9291673  49.7636493  26.3830113   3.3881673  50.2876493
  26.5470113   2.1341673  49.7576493  26.7770113   2.8791673  49.8396493
  12.4150113   1.7771673  41.6676493  12.4590113   2.1211673  40.8666493
  13.1700113   2.0141673  42.0346493  12.5330113   1.8631673  41.6036493
  30.3770113  14.6381673  41.7526493  30.6670113  14.8951673  40.9716493
  31.0720113  14.7341673  42.2716493  30.5230113  14.6901673  41.7136493
  25.4000113   6.4981673  49.8396493  25.4730113   6.6021673  50.7026493
  24.7660113   7.0561673  49.6186493  25.3170113   6.5961673  49.9346493
  27.6680113   6.8171673  48.2046493  27.9870113   7.6031673  48.4076493
  27.2980113   6.5471673  48.9476493  27.6610113   6.8931673  48.3446493
  26.9820113  13.2411673  33.7346493  27.3160113  12.4351673  33.7696493
  26.2270113  13.1691673  34.1646493  26.9200113  13.1111673  33.8036493
  27.4640113   5.0751673  39.3936493  26.7190113   4.7521673  39.7116493
  27.4660113   5.9011673  39.6736493  27.3540113   5.1491673  39.4816493
  30.3660113   7.3591673  50.9396493  30.3140113   7.0181673  50.1386493
  31.1030113   7.8261673  50.9176493  30.4670113   7.3781673  50.8176493
  29.9040113  11.0351673  47.1456493  30.5320113  10.4861673  46.8896493
  29.8430113  11.6001673  46.4836493  29.9880113  11.0381673  47.0096493
  24.3560113  11.1161673  33.1376493  25.0400113  10.6021673  32.9686493
  23.9390113  11.1621673  32.3726493  24.3950113  11.0471673  32.9996493
  19.0380113  12.2661673  44.4416493  18.7400113  12.8581673  45.0086493
  19.0930113  12.7081673  43.6926493  19.0020113  12.4191673  44.4146493
  17.0170113  11.2161673  47.8396493  16.2110113  10.9261673  48.0066493
  16.9280113  12.0841673  47.8456493  16.8850113  11.3011673  47.8646493
  21.5540113   8.6891673  43.9326493  22.0300113   9.0631673  44.5606493
  20.7310113   8.8231673  44.1916493  21.5030113   8.7641673  44.0636493
  18.2640113   4.2921673  46.6736493  18.4250113   3.5481673  47.1006493
  18.2190113   4.0431673  45.8386493  18.2810113   4.1451673  46.6136493
  20.8180113  16.0821673  39.1606493  21.3640113  16.7611673  39.2146493
  20.4680113  16.1641673  38.3656493  20.8470113  16.1951673  39.0506493
  19.0010113  14.3101673  42.5496493  18.3770113  14.8921673  42.3676493
  19.2490113  14.0241673  41.7636493  18.9450113  14.3541673  42.4066493
  23.3100113  10.9441673  49.5386493  24.0670113  11.2301673  49.2126493
  22.7630113  10.9961673  48.8606493  23.3410113  10.9941673  49.3896493
  27.2190113  13.4941673  48.0426493  27.5650113  13.7641673  48.7966493
  27.5130113  14.0761673  47.4626493  27.3140113  13.6201673  48.0686493
  29.0820113   5.6401673  33.3816493  29.4600113   6.3171673  32.9816493
  28.2400113   5.8641673  33.4126493  29.0130113   5.7731673  33.3266493
  20.5950113   9.0861673  32.4646493  19.7900113   8.9091673  32.1796493
  20.5620113   9.9371673  32.6566493  20.4710113   9.1851673  32.4516493
  16.5250113   5.1531673  42.6146493  16.9650113   5.0501673  41.8686493
  17.0700113   4.8401673  43.2196493  16.6700113   5.0921673  42.5936493
  24.5410113   4.2551673  48.2066493  23.8930113   4.7251673  48.5546493
  25.1060113   4.1661673  48.8656493  24.5290113   4.3111673  48.3556493
  24.2290113   5.7921673  44.5046493  24.5310113   6.2121673  45.2076493
  24.2650113   4.9521673  44.7366493  24.2790113   5.7301673  44.6426493
  21.6540113  15.9591673  48.4296493  22.1320113  15.3591673  48.0136493
  21.3030113  15.5161673  49.0946493  21.6730113  15.8051673  48.4666493
  26.7770113   5.2391673  36.7566493  26.9840113   5.0381673  37.5806493
  27.5330113   5.5071673  36.4146493  26.9190113   5.2491673  36.8276493
  28.2420113   9.2661673  36.6106493  28.7180113   8.5371673  36.5626493
  27.4210113   8.9801673  36.5346493  28.1910113   9.1161673  36.5916493
  21.7130113  11.1781673  47.4496493  20.9180113  11.1141673  47.8006493
  21.7840113  12.0251673  47.2546493  21.6060113  11.2931673  47.4726493
  17.5430113  17.3851673  42.7666493  17.5540113  17.4441673  43.6366493
  17.1180113  16.6381673  42.6166493  17.4820113  17.2831673  42.8726493
  15.7010113   3.2801673  35.9216493  15.8270113   2.9511673  35.1236493
  14.8890113   3.0311673  36.1206493  15.6000113   3.1951673  35.8336493
  24.4580113  10.4331673  38.9656493  24.5340113  10.7741673  39.7646493
  24.6270113   9.5861673  39.0866493  24.4940113  10.3581673  39.1016493
  21.9800113   9.7071673  38.5306493  21.6820113   9.3921673  39.2876493
  22.6750113  10.1801673  38.7656493  22.0390113   9.7301673  38.6776493
  22.2020113  13.8251673  46.5576493  22.8890113  13.7111673  47.0826493
  22.3360113  14.6161673  46.2136493  22.3230113  13.9251673  46.5846493
  30.3780113   6.4341673  48.3686493  29.5230113   6.3121673  48.4946493
  30.5310113   6.0391673  47.6056493  30.2740113   6.3571673  48.2746493
  24.8910113   7.0991673  46.9446493  24.6360113   6.3801673  47.3666493
  25.7120113   7.2151673  47.2146493  24.9750113   7.0101673  47.0466493
  14.3070113  16.8831673  48.2086493  13.6530113  16.3141673  48.3066493
  13.9320113  17.6561673  48.3596493  14.1550113  16.9131673  48.2456493
  22.8250113   8.2891673  50.1316493  23.1480113   8.9751673  49.6996493
  22.1210113   8.6121673  50.5336493  22.7680113   8.4381673  50.1266493
  25.9090113  16.6631673  41.0606493  25.4580113  17.3061673  41.4396493
  26.6170113  16.5841673  41.5656493  25.9470113  16.7461673  41.1916493
  22.6100113  11.7531673  43.9906493  21.9160113  12.1551673  44.3336493
  23.2870113  12.1861673  44.3296493  22.6070113  11.8761673  44.0916493
  27.9870113  14.3461673  50.5706493  28.7630113  13.9561673  50.6536493
  27.5180113  14.0101673  51.2256493  28.0320113  14.2391673  50.6796493
  15.6780113   5.2911673  46.3376493  16.0530113   5.9101673  45.8506493
  16.3520113   4.8171673  46.6226493  15.8330113   5.3131673  46.3076493
  13.4530113   3.7391673  45.6126493  13.5300113   3.5701673  44.7596493
  14.1990113   4.1451673  45.8096493  13.5740113   3.7741673  45.5156493
  29.0120113   6.3791673  36.0526493  29.1150113   6.3211673  35.1886493
  29.7530113   6.0471673  36.3706493  29.1370113   6.3221673  35.9716493
  22.9320113  13.3441673  37.1596493  22.7270113  14.1771673  37.0006493
  22.1570113  12.9621673  37.2816493  22.7870113  13.4111673  37.1546493
  28.1140113   6.5251673  45.4086493  28.1120113   5.6621673  45.5326493
  28.1810113   6.8491673  46.2156493  28.1240113   6.4451673  45.5456493
  12.8500113   8.9651673  45.8366493  13.1700113   9.1841673  45.0556493
  12.7500113   8.1001673  45.7816493  12.8820113   8.8701673  45.7136493
  14.3060113   4.9011673  32.4546493  13.6340113   4.9151673  33.0106493
  14.4010113   4.0531673  32.2706493  14.2210113   4.7781673  32.5096493
  18.2940113  13.6061673  33.5686493  18.7350113  13.6861673  34.3166493
  17.4890113  13.3901673  33.8266493  18.2400113  13.5861673  33.7176493
  26.5850113   2.0311673  42.8446493  27.4400113   2.1301673  42.9896493
  26.2160113   2.5841673  43.4096493  26.6570113   2.1281673  42.9496493
  17.6130113   8.2571673  47.2216493  17.2170113   9.0311673  47.2966493
  17.2070113   7.8841673  46.5456493  17.4950113   8.3161673  47.1326493
  26.8890113   7.3111673  41.3356493  27.5550113   7.8521673  41.4956493
  26.5440113   7.6221673  40.5966493  26.9360113   7.4371673  41.2506493
  27.2020113  15.3771673  37.1426493  27.0280113  14.7231673  37.6926493
  27.9150113  15.1061673  36.7196493  27.2820113  15.2401673  37.1616493
  15.6230113  12.6761673  34.1696493  15.3790113  12.3691673  34.9496493
  15.5900113  11.9731673  33.6536493  15.5820113  12.5271673  34.2086493
  18.4420113  10.9211673  32.9126493  17.6240113  10.6531673  33.0526493
  18.4140113  11.7731673  33.0976493  18.3170113  11.0081673  32.9606493
  24.8770113  12.8301673  44.8336493  25.0830113  13.1311673  45.6256493
  24.8160113  13.5521673  44.3486493  24.8980113  12.9811673  44.8786493
  24.4110113  17.0441673  49.0796493  23.6580113  17.0261673  48.6386493
  24.5790113  17.8961673  49.1636493  24.3250113  17.1671673  49.0266493
  19.6480113   6.3111673  48.2496493  19.3260113   5.7351673  47.6796493
  19.2890113   7.0661673  48.0036493  19.5480113   6.3371673  48.1296493
  29.6890113  11.4691673  44.2916493  29.6570113  10.6071673  44.1566493
  28.9960113  11.7711673  43.8576493  29.5820113  11.3861673  44.2076493
  18.0830113  16.6671673  48.4976493  18.1240113  16.7931673  49.3606493
  18.7340113  16.1071673  48.3416493  18.1850113  16.6031673  48.6026493
  27.7940113  14.7291673  43.0886493  28.3210113  14.6461673  42.3976493
  27.4030113  13.9511673  43.1426493  27.8140113  14.6021673  42.9946493
  15.6760113  15.0501673  49.8576493  16.2710113  15.4811673  50.3296493
  15.3120113  15.6741673  49.3686493  15.7100113  15.2061673  49.8546493
  23.6670113   5.9811673  39.7896493  24.2180113   5.3741673  40.0896493
  23.2420113   6.2441673  40.5046493  23.6860113   5.9301673  39.9386493
  13.9150113   4.6311673  39.2756493  13.5470113   4.9331673  40.0066493
  14.4490113   4.0021673  39.5596493  13.9390113   4.5831673  39.4256493
  13.6030113  13.0391673  46.7866493  13.0290113  13.4551673  47.2956493
  14.3360113  13.5041673  46.8816493  13.6270113  13.1691673  46.8756493
  25.6370113   7.8121673  36.3516493  25.7050113   6.9621673  36.5326493
  24.8140113   7.8981673  36.0736493  25.5250113   7.6991673  36.3376493
  15.3890113  16.3061673  35.5616493  15.2440113  16.4621673  34.7156493
  16.2550113  16.3851673  35.6396493  15.4960113  16.3411673  35.4486493
  19.5560113   8.7031673  35.2896493  19.6560113   8.8421673  34.4346493
  20.3740113   8.6431673  35.5856493  19.6910113   8.7141673  35.2066493
  28.7160113  16.7671673  32.7696493  29.3530113  16.6331673  33.3506493
  28.3750113  15.9731673  32.6526493  28.7600113  16.6301673  32.8376493
  28.9110113   9.1851673  49.5026493  29.5450113   9.0151673  50.0766493
  29.3280113   9.5881673  48.8506493  29.0660113   9.2201673  49.4916493
  24.7910113  13.0321673  35.0916493  24.5400113  12.9041673  35.9176493
  24.4740113  12.3371673  34.6706493  24.7070113  12.9111673  35.1516493
  29.5360113   3.7491673  50.2406493  29.3400113   4.3931673  50.7956493
  28.8140113   3.2591673  50.2326493  29.4010113   3.7721673  50.3216493
  29.4350113   4.6901673  43.2116493  28.6020113   4.9401673  43.1396493
  29.3790113   3.8501673  43.4406493  29.3040113   4.6031673  43.2346493
  26.3220113   9.2961673  50.8576493  27.1930113   9.2601673  50.8216493
  26.1030113   9.7161673  50.1256493  26.4190113   9.3521673  50.7446493
  16.0760113  15.1211673  42.0386493  15.9970113  14.3111673  41.7226493
  15.6320113  15.6081673  41.4666493  15.9990113  15.0731673  41.9076493
  21.6770113  11.2401673  34.5216493  22.3940113  10.8931673  34.1656493
  21.6430113  12.0401673  34.1736493  21.7780113  11.3071673  34.4176493
  13.6480113  17.3651673  45.6196493  14.1410113  17.3091673  46.3376493
  13.8360113  16.6321673  45.1846493  13.7490113  17.2481673  45.6616493
  22.8950113   6.7971673  23.4314083  22.3710113   7.3931673  23.7944083
  23.2920113   6.4291673  24.1154083  22.8760113   6.8311673  23.5864083
  12.7640113  10.9371673  18.8874083  12.3230113  11.0551673  19.6304083
  12.4810113  10.1621673  18.6024083  12.6570113  10.8401673  18.9554083
  29.0390113  14.2381673  16.4024083  29.7400113  13.7191673  16.3984083
  28.4520113  13.7931673  15.9334083  29.0560113  14.0951673  16.3324083
  12.5070113   4.7291673  15.3944083  11.7290113   4.8911673  15.0344083
  12.5460113   3.8581673  15.4164083  12.3980113   4.6241673  15.3444083
  15.6460113   9.9921673  14.0664083  15.2540113   9.6211673  13.3804083
  15.5660113   9.3941673  14.6954083  15.5760113   9.8491673  14.0574083
  25.5660113   7.8641673  20.1074083  25.6460113   7.8681673  19.2384083
  24.9820113   7.2321673  20.2564083  25.4910113   7.7711673  20.0014083
  15.2730113  11.6331673  17.9664083  15.8810113  11.4631673  18.5694083
  14.5220113  11.4931673  18.3874083  15.2520113  11.5871673  18.1174083
  14.1640113  14.7241673  14.0434083  14.6310113  14.8081673  13.3114083
  14.6190113  14.1461673  14.5124083  14.3000113  14.6511673  14.0044083
  12.7040113  13.6721673  25.1424083  12.8330113  13.3921673  25.9584083
  12.0940113  13.1311673  24.8334083  12.6330113  13.5511673  25.2174083
  19.2780113  11.1971673  30.2094083  19.0420113  11.1941673  31.0494083
  18.5300113  11.0491673  29.7854083  19.1320113  11.1741673  30.2704083
  14.1500113   8.1931673  19.3444083  13.6880113   7.8011673  18.7174083
  14.8500113   7.6801673  19.4364083  14.1850113   8.0601673  19.2654083
  18.6580113   3.8031673  24.6914083  19.3360113   3.8211673  24.1424083
  18.6130113   2.9671673  24.9364083  18.7510113   3.6821673  24.6464083
  19.2600113  14.3891673  27.4724083  19.3980113  15.1491673  27.0654083
  20.0510113  14.0241673  27.4994083  19.3970113  14.4481673  27.4164083
  16.1510113   6.2931673  19.3674083  16.9680113   6.1061673  19.6104083
  15.6740113   5.6791673  19.7634083  16.2010113   6.1751673  19.4624083
  20.3550113  12.2741673  21.9774083  20.7030113  11.4751673  22.0074083
  21.0200113  12.7781673  21.7224083  20.5050113  12.2301673  21.9444083
  20.4120113  11.7231673  18.1884083  20.7430113  11.0791673  18.6744083
  20.6520113  11.5121673  17.3774083  20.4960113  11.5971673  18.1404083
  22.3800113   5.8541673  29.5274083  21.5320113   5.7551673  29.3494083
  22.4090113   6.5991673  29.9814083  22.2590113   5.9501673  29.5684083
  24.4000113   3.4551673  13.1554083  23.9500113   4.1361673  13.4624083
  24.5140113   2.9511673  13.8584083  24.3510113   3.4811673  13.3044083
  12.6060113   5.9541673  22.3574083  12.3500113   6.7851673  22.2824083
  11.9420113   5.5711673  22.7744083  12.4700113   6.0201673  22.4084083
  12.5160113  15.6641673  20.2574083  11.9240113  16.2221673  19.9444083
  12.9420113  15.3951673  19.5454083  12.4920113  15.7061673  20.1064083
  18.3560113  13.5081673  17.7374083  17.7770113  13.2331673  18.3294083
  18.9800113  12.8991673  17.7624083  18.3630113  13.3781673  17.8284083
  24.4990113  15.7961673  15.2594083  25.2260113  16.2681673  15.3614083
  24.7280113  15.0021673  15.5394083  24.6410113  15.7491673  15.3164083
  22.6670113  16.1881673  17.2494083  22.8810113  16.7151673  17.9114083
  23.4340113  16.0141673  16.8704083  22.8120113  16.2401673  17.2914083
  18.9410113   2.9041673  32.1464083  19.0580113   2.4501673  31.4104083
  19.2290113   3.7021673  31.9434083  19.0010113   2.9551673  32.0074083
  14.0610113  14.3341673  18.1884083  14.7170113  13.7591673  18.2034083
  14.4500113  15.0831673  17.9674083  14.2160113  14.3591673  18.1584083
  29.7940113   3.4281673  19.4504083  29.4480113   4.1061673  19.8764083
  29.1580113   2.8301673  19.4664083  29.6490113   3.4401673  19.5154083
  25.1060113  16.1981673  25.5544083  25.8500113  16.6541673  25.5444083
  24.9850113  15.9841673  24.7174083  25.1980113  16.2341673  25.4294083
  14.6740113   2.5011673  31.1304083  13.8960113   2.1111673  31.0584083
  15.1650113   2.0891673  30.5394083  14.6310113   2.3821673  31.0324083
  14.8790113  12.8211673  21.6884083  15.3020113  12.4651673  21.0144083
  15.2030113  12.3991673  22.3804083  14.9890113  12.7061673  21.6914083
  18.1100113  15.6731673  20.9844083  18.9540113  15.7771673  20.7894083
  17.8130113  16.4911673  21.0524083  18.1910113  15.8091673  20.9654083
  21.9170113   5.0701673  19.0714083  22.2040113   4.8381673  18.2814083
  22.6490113   5.1491673  19.5404083  22.0670113   5.0471673  19.0244083
  22.6390113   5.4091673  14.1924083  22.9200113   6.1971673  14.4414083
  21.8630113   5.5741673  13.8294083  22.5660113   5.5501673  14.1754083
  26.6800113  17.3831673  15.6594083  27.3450113  17.2351673  15.1144083
  27.0400113  17.3001673  16.4494083  26.8320113  17.3491673  15.6954083
  17.1080113  16.8921673  26.7244083  17.4000113  16.8251673  27.5444083
  16.4820113  16.2871673  26.6794083  17.0590113  16.7931673  26.8394083
  12.0220113   3.0491673  28.7164083  12.0180113   3.6361673  29.3624083
  12.6160113   3.3611673  28.1594083  12.1090113   3.1821673  28.7294083
  24.3600113  13.3831673  29.2584083  24.3260113  13.7651673  30.0424083
  25.2140113  13.3411673  29.0874083  24.4810113  13.4331673  29.3494083
  21.4980113  13.5801673  14.0084083  21.3170113  14.1251673  14.6654083
  22.2640113  13.8701673  13.7074083  21.5840113  13.7041673  14.0614083
  12.9590113   2.6441673  17.6314083  12.8450113   1.7801673  17.6624083
  12.4840113   2.9381673  18.3014083  12.8720113   2.5601673  17.7344083
  15.1010113  15.0541673  25.8464083  14.4030113  14.5461673  25.9724083
  15.3610113  14.8491673  25.0384083  15.0360113  14.9491673  25.7454083
  22.2630113   3.8521673  16.3764083  21.7550113   3.1901673  16.1224083
  22.3150113   4.3561673  15.6664083  22.1960113   3.8291673  16.2344083
  22.8120113  16.5471673  26.7564083  23.5800113  16.4671673  26.3504083
  22.2290113  16.4261673  26.1184083  22.8390113  16.5171673  26.6024083
  29.0890113  17.1501673  19.6574083  28.6340113  17.8671673  19.8584083
  28.4750113  16.5791673  19.4154083  28.9310113  17.1721673  19.6514083
  20.8610113   3.1601673  20.7894083  20.9350113   3.7281673  20.1314083
  20.9820113   3.6521673  21.4994083  20.8890113   3.3171673  20.7974083
  26.0860113  12.9951673  19.2014083  26.7870113  12.5131673  19.3904083
  25.4260113  12.4261673  19.2464083  26.0920113  12.8401673  19.2354083
  16.4620113  13.9051673  28.4134083  17.3030113  13.9681673  28.1914083
  16.4250113  14.3021673  29.1894083  16.5810113  13.9731673  28.4954083
  18.4250113   9.4161673  23.1624083  18.5970113   9.2061673  23.9914083
  17.7700113   8.8821673  22.9464083  18.3540113   9.3061673  23.2534083
  24.6530113   3.3301673  26.6774083  24.5580113   3.6491673  27.4834083
  24.0600113   2.6911673  26.6394083  24.5510113   3.2821673  26.7914083
  19.1750113   9.3541673  25.7524083  19.2280113  10.2011673  25.9544083
  18.8900113   8.9841673  26.4894083  19.1410113   9.4241673  25.8904083
  25.3520113  10.0491673  24.8824083  24.8380113   9.6371673  25.4534083
  25.2260113  10.8931673  25.0634083  25.2580113  10.1131673  24.9934083
  11.9960113  13.7251673  31.9634083  12.7520113  14.0741673  32.2214083
  12.1730113  12.8721673  31.9064083  12.1340113  13.6501673  31.9934083
  28.3730113   3.5101673  27.8214083  29.1450113   3.2851673  28.1584083
  27.8980113   3.7271673  28.5214083  28.4170113   3.5091673  27.9744083
  15.9170113   2.7931673  20.7914083  16.1890113   2.3631673  20.0834083
  15.7410113   2.1571673  21.3624083  15.9310113   2.6361673  20.7714083
  28.6050113  10.4881673  15.0094083  28.7240113  10.2011673  15.8244083
  29.4120113  10.5091673  14.6794083  28.7410113  10.4491673  15.0814083
  15.7410113  10.2201673  20.3404083  16.5920113  10.1401673  20.1674083
  15.3840113   9.5381673  19.9284083  15.8140113  10.1071673  20.2534083
  14.5080113  16.9451673  21.5774083  13.8350113  16.4471673  21.3324083
  14.9110113  17.1301673  20.8264083  14.4680113  16.8991673  21.4304083
  14.0580113   3.8951673  23.8734083  14.9010113   4.1151673  23.8304083
  13.6690113   4.4681673  23.3424083  14.1250113   4.0121673  23.7884083
  30.8390113  14.9971673  29.2634083  30.1570113  15.3071673  28.8164083
  30.4700113  14.5391673  29.9084083  30.6830113  14.9751673  29.2924083
  26.5000113   7.0251673  14.5944083  26.2800113   7.7561673  14.1724083
  26.0520113   7.0761673  15.3414083  26.4010113   7.1401673  14.6424083
  18.1090113  10.2271673  18.5754083  18.8220113  10.7221673  18.6654083
  18.3310113   9.6601673  17.9494083  18.2470113  10.2161673  18.4964083
  12.2650113  11.8701673  21.8954083  11.5980113  12.3581673  22.1714083
  12.9450113  12.4151673  21.9244083  12.2670113  12.0221673  21.9404083
  19.9120113   5.5801673  31.9914083  19.4280113   6.1571673  32.4334083
  19.8840113   5.8751673  31.1704083  19.8360113   5.7091673  31.9354083
  31.0100113   6.2641673  26.6034083  31.2250113   5.4641673  26.3274083
  30.1600113   6.3241673  26.4144083  30.9160113   6.1551673  26.5344083
  12.3310113   8.5541673  16.9984083  12.1460113   7.7151673  17.1504083
  12.9900113   8.5181673  16.4284083  12.4010113   8.4251673  16.9364083
  22.6320113  13.9301673  20.9024083  22.1090113  14.5641673  20.6094083
  22.9420113  13.5661673  20.1734083  22.6000113  13.9701673  20.7514083
  12.5030113  12.7181673  16.5734083  13.0550113  13.2871673  16.9374083
  12.2710113  12.2031673  17.2384083  12.5500113  12.7261673  16.7254083
  16.7070113  11.7181673  23.6624083  17.1740113  12.0071673  24.3404083
  17.2790113  11.2401673  23.2084083  16.8610113  11.6901673  23.6954083
  25.1430113   3.7321673  21.3994083  25.4870113   3.8841673  22.1864083
  24.6900113   2.9941673  21.5124083  25.1270113   3.6451673  21.5324083
  12.3330113  11.1671673  14.2014083  13.0890113  10.7351673  14.2594083
  12.3480113  11.6991673  14.8924083  12.4470113  11.1821673  14.3124083
  13.2730113   9.3881673  22.2064083  13.7040113   9.2591673  21.4594083
  13.0680113  10.2361673  22.1804083  13.3060113   9.4941673  22.0924083
  19.6190113   2.9521673  15.8564083  19.6170113   2.8351673  14.9914083
  19.4380113   3.8001673  15.9484083  19.5920113   3.0601673  15.7424083
  28.6730113  15.3791673  27.3534083  28.0020113  15.8931673  27.5714083
  28.7360113  15.4791673  26.4894083  28.5830113  15.4701673  27.2584083
  17.3570113  12.9041673  20.4884083  17.4830113  13.7471673  20.6754083
  18.0250113  12.5051673  20.8844083  17.4750113  12.9701673  20.5744083
  15.4870113   6.3871673  30.3504083  14.9510113   5.8811673  30.8184083
  15.5070113   5.9971673  29.5704083  15.4100113   6.2541673  30.3044083
  15.9720113   5.7841673  15.4904083  15.8440113   5.3361673  16.2284083
  15.3900113   5.4421673  14.9384083  15.8670113   5.6671673  15.5184083
  16.1390113   7.6141673  22.0894083  15.3580113   7.5551673  21.7064083
  16.2110113   6.8621673  22.5264083  16.0340113   7.4951673  22.0974083
  16.5690113   7.3511673  25.5574083  16.5940113   6.6761673  25.0064083
  15.9230113   7.8471673  25.2454083  16.4780113   7.3241673  25.4304083
  26.4640113   5.0641673  23.9534083  25.8020113   5.3921673  24.4164083
  26.6510113   5.6981673  23.3844083  26.3940113   5.2061673  23.9374083
  20.6690113  16.1281673  24.9494083  20.3920113  15.4871673  24.4264083
  20.4610113  16.8541673  24.5114083  20.5980113  16.1411673  24.8074083
  24.6570113   3.0331673  17.4644083  25.1470113   3.7501673  17.3874083
  23.8670113   3.2941673  17.2014083  24.6130113   3.1771673  17.4144083
  14.3680113   8.7061673  31.1164083  14.3310113   9.2071673  30.4024083
  14.6990113   7.9541673  30.8214083  14.4110113   8.6681673  30.9674083
  25.9710113  10.9111673  29.3744083  26.4550113  11.6291673  29.4724083
  26.3650113  10.4841673  28.7234083  26.1010113  10.9541673  29.2924083
  20.2670113  13.7561673  30.5514083  20.6210113  13.5781673  31.3284083
  19.8310113  13.0271673  30.3524083  20.2550113  13.6221673  30.6374083
  21.2390113   4.5031673  23.1894083  21.7190113   5.2021673  23.3974083
  21.6120113   3.8561673  23.6404083  21.3650113   4.5111673  23.2864083
  23.4280113   7.6721673  15.4634083  23.4200113   8.3941673  14.9734083
  22.7890113   7.8071673  16.0404083  23.3330113   7.7991673  15.4764083
  28.4000113  11.5421673  19.4444083  28.7560113  11.1921673  20.1594083
  28.3920113  10.8811673  18.8744083  28.4520113  11.3921673  19.4654083
  24.4450113  14.6081673  23.2884083  23.8420113  14.3121673  22.7314083
  24.9900113  15.0601673  22.7794083  24.4360113  14.6311673  23.1304083
  24.4580113  11.4591673  22.6884083  23.6610113  11.6831673  22.9624083
  24.7160113  10.8651673  23.2734083  24.3780113  11.4041673  22.8154083
  18.3500113  16.2711673  17.1364083  18.2030113  15.4951673  17.5074083
  19.0390113  16.1241673  16.6214083  18.4300113  16.1341673  17.1154083
  20.6420113  15.7871673  15.5384083  21.2640113  15.9501673  16.1284083
  20.6780113  16.4781673  15.0064083  20.7390113  15.9131673  15.5474083
  27.7180113   9.4571673  27.5344083  27.7730113   9.5821673  26.6724083
  28.4710113   9.7771673  27.8364083  27.8370113   9.5221673  27.4514083
  23.9090113  14.8061673  31.8114083  24.0730113  15.0891673  32.6204083
  24.1720113  15.4671673  31.3064083  23.9720113  14.9461673  31.8564083
  15.1430113   8.3211673  16.3674083  15.4670113   7.5421673  16.1454083
  15.7890113   8.6891673  16.8224083  15.2860113   8.2601673  16.4014083
  23.4490113   9.2631673  27.1344083  23.2940113   9.8731673  27.7384083
  23.9830113   8.7051673  27.5404083  23.5050113   9.2711673  27.2834083
  21.8330113   7.6631673  17.7924083  21.8920113   8.3131673  18.3714083
  21.6440113   6.9671673  18.2834083  21.8140113   7.6561673  17.9504083
  27.0590113  11.9921673  23.6614083  26.5800113  12.2901673  22.9954083
  26.7030113  11.2161673  23.8394083  26.9360113  11.9211673  23.5894083
  16.3290113   2.1801673  14.3044083  15.8180113   2.2331673  13.5984083
  17.1130113   2.4201673  14.0084083  16.3690113   2.2231673  14.1564083
  21.0560113   9.7101673  22.2234083  20.2090113   9.5161673  22.3044083
  21.3800113   9.5451673  23.0164083  20.9780113   9.6571673  22.3524083
  17.8080113  16.4401673  13.1094083  18.2470113  15.7431673  13.3974083
  18.0150113  17.0641673  13.6824083  17.9040113  16.4291673  13.2364083
  14.9040113   9.4031673  24.5394083  15.6260113   9.8911673  24.5024083
  14.6340113   9.3731673  23.7104083  14.9710113   9.4711673  24.4114083
  18.1340113   4.5741673  21.2744083  18.9800113   4.3841673  21.3724083
  17.7640113   3.7971673  21.1364083  18.2040113   4.4311673  21.2684083
  30.7510113  16.1581673  15.6014083  31.4450113  15.6911673  15.3534083
  30.2120113  15.5601673  15.9384083  30.7740113  16.0001673  15.6144083
  12.9550113   5.9121673  17.9294083  13.4440113   5.6201673  18.5904083
  13.0840113   5.3191673  17.3024083  13.0460113   5.7811673  17.9344083
  27.9900113   8.9341673  24.7804083  27.9830113   8.1581673  25.1784083
  27.1490113   9.1681673  24.7734083  27.8650113   8.8541673  24.8384083
  17.4800113   7.3461673  13.4154083  16.8700113   6.9411673  13.8894083
  17.0940113   7.4641673  12.6424083  17.3330113   7.3031673  13.3714083
  14.2990113  10.4551673  28.8174083  13.8780113   9.9371673  28.2564083
  13.9470113  11.2411673  28.6744083  14.1850113  10.4951673  28.7134083
  29.2460113   9.0051673  22.2174083  28.9600113   9.4061673  22.9374083
  30.1060113   8.9431673  22.3444083  29.3310113   9.0551673  22.3424083
  18.9350113   5.8071673  16.1254083  19.2070113   6.6331673  16.1924083
  18.0720113   5.8821673  16.0294083  18.8480113   5.9401673  16.1204083
  26.9080113   2.9291673  30.7574083  26.3830113   3.3881673  31.2814083
  26.5470113   2.1341673  30.7514083  26.7770113   2.8791673  30.8334083
  12.4150113   1.7771673  22.6614083  12.4590113   2.1211673  21.8604083
  13.1700113   2.0141673  23.0284083  12.5330113   1.8631673  22.5974083
  30.3770113  14.6381673  22.7464083  30.6670113  14.8951673  21.9654083
  31.0720113  14.7341673  23.2654083  30.5230113  14.6901673  22.7074083
  25.4000113   6.4981673  30.8334083  25.4730113   6.6021673  31.6964083
  24.7660113   7.0561673  30.6124083  25.3170113   6.5961673  30.9284083
  27.6680113   6.8171673  29.1984083  27.9870113   7.6031673  29.4014083
  27.2980113   6.5471673  29.9414083  27.6610113   6.8931673  29.3384083
  26.9820113  13.2411673  14.7284083  27.3160113  12.4351673  14.7634083
  26.2270113  13.1691673  15.1584083  26.9200113  13.1111673  14.7974083
  27.4640113   5.0751673  20.3874083  26.7190113   4.7521673  20.7054083
  27.4660113   5.9011673  20.6674083  27.3540113   5.1491673  20.4754083
  30.3660113   7.3591673  31.9334083  30.3140113   7.0181673  31.1324083
  31.1030113   7.8261673  31.9114083  30.4670113   7.3781673  31.8114083
  29.9040113  11.0351673  28.1394083  30.5320113  10.4861673  27.8834083
  29.8430113  11.6001673  27.4774083  29.9880113  11.0381673  28.0034083
  24.3560113  11.1161673  14.1314083  25.0400113  10.6021673  13.9624083
  23.9390113  11.1621673  13.3664083  24.3950113  11.0471673  13.9934083
  19.0380113  12.2661673  25.4354083  18.7400113  12.8581673  26.0024083
  19.0930113  12.7081673  24.6864083  19.0020113  12.4191673  25.4084083
  17.0170113  11.2161673  28.8334083  16.2110113  10.9261673  29.0004083
  16.9280113  12.0841673  28.8394083  16.8850113  11.3011673  28.8584083
  21.5540113   8.6891673  24.9264083  22.0300113   9.0631673  25.5544083
  20.7310113   8.8231673  25.1854083  21.5030113   8.7641673  25.0574083
  18.2640113   4.2921673  27.6674083  18.4250113   3.5481673  28.0944083
  18.2190113   4.0431673  26.8324083  18.2810113   4.1451673  27.6074083
  20.8180113  16.0821673  20.1544083  21.3640113  16.7611673  20.2084083
  20.4680113  16.1641673  19.3594083  20.8470113  16.1951673  20.0444083
  19.0010113  14.3101673  23.5434083  18.3770113  14.8921673  23.3614083
  19.2490113  14.0241673  22.7574083  18.9450113  14.3541673  23.4004083
  23.3100113  10.9441673  30.5324083  24.0670113  11.2301673  30.2064083
  22.7630113  10.9961673  29.8544083  23.3410113  10.9941673  30.3834083
  27.2190113  13.4941673  29.0364083  27.5650113  13.7641673  29.7904083
  27.5130113  14.0761673  28.4564083  27.3140113  13.6201673  29.0624083
  29.0820113   5.6401673  14.3754083  29.4600113   6.3171673  13.9754083
  28.2400113   5.8641673  14.4064083  29.0130113   5.7731673  14.3204083
  20.5950113   9.0861673  13.4584083  19.7900113   8.9091673  13.1734083
  20.5620113   9.9371673  13.6504083  20.4710113   9.1851673  13.4454083
  16.5250113   5.1531673  23.6084083  16.9650113   5.0501673  22.8624083
  17.0700113   4.8401673  24.2134083  16.6700113   5.0921673  23.5874083
  24.5410113   4.2551673  29.2004083  23.8930113   4.7251673  29.5484083
  25.1060113   4.1661673  29.8594083  24.5290113   4.3111673  29.3494083
  24.2290113   5.7921673  25.4984083  24.5310113   6.2121673  26.2014083
  24.2650113   4.9521673  25.7304083  24.2790113   5.7301673  25.6364083
  21.6540113  15.9591673  29.4234083  22.1320113  15.3591673  29.0074083
  21.3030113  15.5161673  30.0884083  21.6730113  15.8051673  29.4604083
  26.7770113   5.2391673  17.7504083  26.9840113   5.0381673  18.5744083
  27.5330113   5.5071673  17.4084083  26.9190113   5.2491673  17.8214083
  28.2420113   9.2661673  17.6044083  28.7180113   8.5371673  17.5564083
  27.4210113   8.9801673  17.5284083  28.1910113   9.1161673  17.5854083
  21.7130113  11.1781673  28.4434083  20.9180113  11.1141673  28.7944083
  21.7840113  12.0251673  28.2484083  21.6060113  11.2931673  28.4664083
  17.5430113  17.3851673  23.7604083  17.5540113  17.4441673  24.6304083
  17.1180113  16.6381673  23.6104083  17.4820113  17.2831673  23.8664083
  15.7010113   3.2801673  16.9154083  15.8270113   2.9511673  16.1174083
  14.8890113   3.0311673  17.1144083  15.6000113   3.1951673  16.8274083
  24.4580113  10.4331673  19.9594083  24.5340113  10.7741673  20.7584083
  24.6270113   9.5861673  20.0804083  24.4940113  10.3581673  20.0954083
  21.9800113   9.7071673  19.5244083  21.6820113   9.3921673  20.2814083
  22.6750113  10.1801673  19.7594083  22.0390113   9.7301673  19.6714083
  22.2020113  13.8251673  27.5514083  22.8890113  13.7111673  28.0764083
  22.3360113  14.6161673  27.2074083  22.3230113  13.9251673  27.5784083
  30.3780113   6.4341673  29.3624083  29.5230113   6.3121673  29.4884083
  30.5310113   6.0391673  28.5994083  30.2740113   6.3571673  29.2684083
  24.8910113   7.0991673  27.9384083  24.6360113   6.3801673  28.3604083
  25.7120113   7.2151673  28.2084083  24.9750113   7.0101673  28.0404083
  14.3070113  16.8831673  29.2024083  13.6530113  16.3141673  29.3004083
  13.9320113  17.6561673  29.3534083  14.1550113  16.9131673  29.2394083
  22.8250113   8.2891673  31.1254083  23.1480113   8.9751673  30.6934083
  22.1210113   8.6121673  31.5274083  22.7680113   8.4381673  31.1204083
  25.9090113  16.6631673  22.0544083  25.4580113  17.3061673  22.4334083
  26.6170113  16.5841673  22.5594083  25.9470113  16.7461673  22.1854083
  22.6100113  11.7531673  24.9844083  21.9160113  12.1551673  25.3274083
  23.2870113  12.1861673  25.3234083  22.6070113  11.8761673  25.0854083
  27.9870113  14.3461673  31.5644083  28.7630113  13.9561673  31.6474083
  27.5180113  14.0101673  32.2194083  28.0320113  14.2391673  31.6734083
  15.6780113   5.2911673  27.3314083  16.0530113   5.9101673  26.8444083
  16.3520113   4.8171673  27.6164083  15.8330113   5.3131673  27.3014083
  13.4530113   3.7391673  26.6064083  13.5300113   3.5701673  25.7534083
  14.1990113   4.1451673  26.8034083  13.5740113   3.7741673  26.5094083
  29.0120113   6.3791673  17.0464083  29.1150113   6.3211673  16.1824083
  29.7530113   6.0471673  17.3644083  29.1370113   6.3221673  16.9654083
  22.9320113  13.3441673  18.1534083  22.7270113  14.1771673  17.9944083
  22.1570113  12.9621673  18.2754083  22.7870113  13.4111673  18.1484083
  28.1140113   6.5251673  26.4024083  28.1120113   5.6621673  26.5264083
  28.1810113   6.8491673  27.2094083  28.1240113   6.4451673  26.5394083
  12.8500113   8.9651673  26.8304083  13.1700113   9.1841673  26.0494083
  12.7500113   8.1001673  26.7754083  12.8820113   8.8701673  26.7074083
  14.3060113   4.9011673  13.4484083  13.6340113   4.9151673  14.0044083
  14.4010113   4.0531673  13.2644083  14.2210113   4.7781673  13.5034083
  18.2940113  13.6061673  14.5624083  18.7350113  13.6861673  15.3104083
  17.4890113  13.3901673  14.8204083  18.2400113  13.5861673  14.7114083
  26.5850113   2.0311673  23.8384083  27.4400113   2.1301673  23.9834083
  26.2160113   2.5841673  24.4034083  26.6570113   2.1281673  23.9434083
  17.6130113   8.2571673  28.2154083  17.2170113   9.0311673  28.2904083
  17.2070113   7.8841673  27.5394083  17.4950113   8.3161673  28.1264083
  26.8890113   7.3111673  22.3294083  27.5550113   7.8521673  22.4894083
  26.5440113   7.6221673  21.5904083  26.9360113   7.4371673  22.2444083
  27.2020113  15.3771673  18.1364083  27.0280113  14.7231673  18.6864083
  27.9150113  15.1061673  17.7134083  27.2820113  15.2401673  18.1554083
  15.6230113  12.6761673  15.1634083  15.3790113  12.3691673  15.9434083
  15.5900113  11.9731673  14.6474083  15.5820113  12.5271673  15.2024083
  18.4420113  10.9211673  13.9064083  17.6240113  10.6531673  14.0464083
  18.4140113  11.7731673  14.0914083  18.3170113  11.0081673  13.9544083
  24.8770113  12.8301673  25.8274083  25.0830113  13.1311673  26.6194083
  24.8160113  13.5521673  25.3424083  24.8980113  12.9811673  25.8724083
  24.4110113  17.0441673  30.0734083  23.6580113  17.0261673  29.6324083
  24.5790113  17.8961673  30.1574083  24.3250113  17.1671673  30.0204083
  19.6480113   6.3111673  29.2434083  19.3260113   5.7351673  28.6734083
  19.2890113   7.0661673  28.9974083  19.5480113   6.3371673  29.1234083
  29.6890113  11.4691673  25.2854083  29.6570113  10.6071673  25.1504083
  28.9960113  11.7711673  24.8514083  29.5820113  11.3861673  25.2014083
  18.0830113  16.6671673  29.4914083  18.1240113  16.7931673  30.3544083
  18.7340113  16.1071673  29.3354083  18.1850113  16.6031673  29.5964083
  27.7940113  14.7291673  24.0824083  28.3210113  14.6461673  23.3914083
  27.4030113  13.9511673  24.1364083  27.8140113  14.6021673  23.9884083
  15.6760113  15.0501673  30.8514083  16.2710113  15.4811673  31.3234083
  15.3120113  15.6741673  30.3624083  15.7100113  15.2061673  30.8484083
  23.6670113   5.9811673  20.7834083  24.2180113   5.3741673  21.0834083
  23.2420113   6.2441673  21.4984083  23.6860113   5.9301673  20.9324083
  13.9150113   4.6311673  20.2694083  13.5470113   4.9331673  21.0004083
  14.4490113   4.0021673  20.5534083  13.9390113   4.5831673  20.4194083
  13.6030113  13.0391673  27.7804083  13.0290113  13.4551673  28.2894083
  14.3360113  13.5041673  27.8754083  13.6270113  13.1691673  27.8694083
  25.6370113   7.8121673  17.3454083  25.7050113   6.9621673  17.5264083
  24.8140113   7.8981673  17.0674083  25.5250113   7.6991673  17.3314083
  15.3890113  16.3061673  16.5554083  15.2440113  16.4621673  15.7094083
  16.2550113  16.3851673  16.6334083  15.4960113  16.3411673  16.4424083
  19.5560113   8.7031673  16.2834083  19.6560113   8.8421673  15.4284083
  20.3740113   8.6431673  16.5794083  19.6910113   8.7141673  16.2004083
  28.7160113  16.7671673  13.7634083  29.3530113  16.6331673  14.3444083
  28.3750113  15.9731673  13.6464083  28.7600113  16.6301673  13.8314083
  28.9110113   9.1851673  30.4964083  29.5450113   9.0151673  31.0704083
  29.3280113   9.5881673  29.8444083  29.0660113   9.2201673  30.4854083
  24.7910113  13.0321673  16.0854083  24.5400113  12.9041673  16.9114083
  24.4740113  12.3371673  15.6644083  24.7070113  12.9111673  16.1454083
  29.5360113   3.7491673  31.2344083  29.3400113   4.3931673  31.7894083
  28.8140113   3.2591673  31.2264083  29.4010113   3.7721673  31.3154083
  29.4350113   4.6901673  24.2054083  28.6020113   4.9401673  24.1334083
  29.3790113   3.8501673  24.4344083  29.3040113   4.6031673  24.2284083
  26.3220113   9.2961673  31.8514083  27.1930113   9.2601673  31.8154083
  26.1030113   9.7161673  31.1194083  26.4190113   9.3521673  31.7384083
  16.0760113  15.1211673  23.0324083  15.9970113  14.3111673  22.7164083
  15.6320113  15.6081673  22.4604083  15.9990113  15.0731673  22.9014083
  21.6770113  11.2401673  15.5154083  22.3940113  10.8931673  15.1594083
  21.6430113  12.0401673  15.1674083  21.7780113  11.3071673  15.4114083
  13.6480113  17.3651673  26.6134083  14.1410113  17.3091673  27.3314083
  13.8360113  16.6321673  26.1784083  13.7490113  17.2481673  26.6554083
  22.8950113   6.7971673   4.4251673  22.3710113   7.3931673   4.7881673
  23.2920113   6.4291673   5.1091673  22.8760113   6.8311673   4.5801673
  12.7040113  13.6721673   6.1361673  12.8330113  13.3921673   6.9521673
  12.0940113  13.1311673   5.8271673  12.6330113  13.5511673   6.2111673
  19.2780113  11.1971673  11.2031673  19.0420113  11.1941673  12.0431673
  18.5300113  11.0491673  10.7791673  19.1320113  11.1741673  11.2641673
  18.6580113   3.8031673   5.6851673  19.3360113   3.8211673   5.1361673
  18.6130113   2.9671673   5.9301673  18.7510113   3.6821673   5.6401673
  19.2600113  14.3891673   8.4661673  19.3980113  15.1491673   8.0591673
  20.0510113  14.0241673   8.4931673  19.3970113  14.4481673   8.4101673
  20.3550113  12.2741673   2.9711673  20.7030113  11.4751673   3.0011673
  21.0200113  12.7781673   2.7161673  20.5050113  12.2301673   2.9381673
  22.3800113   5.8541673  10.5211673  21.5320113   5.7551673  10.3431673
  22.4090113   6.5991673  10.9751673  22.2590113   5.9501673  10.5621673
  12.6060113   5.9541673   3.3511673  12.3500113   6.7851673   3.2761673
  11.9420113   5.5711673   3.7681673  12.4700113   6.0201673   3.4021673
  18.9410113   2.9041673  13.1401673  19.0580113   2.4501673  12.4041673
  19.2290113   3.7021673  12.9371673  19.0010113   2.9551673  13.0011673
  25.1060113  16.1981673   6.5481673  25.8500113  16.6541673   6.5381673
  24.9850113  15.9841673   5.7111673  25.1980113  16.2341673   6.4231673
  14.6740113   2.5011673  12.1241673  13.8960113   2.1111673  12.0521673
  15.1650113   2.0891673  11.5331673  14.6310113   2.3821673  12.0261673
  14.8790113  12.8211673   2.6821673  15.3020113  12.4651673   2.0081673
  15.2030113  12.3991673   3.3741673  14.9890113  12.7061673   2.6851673
  18.1100113  15.6731673   1.9781673  18.9540113  15.7771673   1.7831673
  17.8130113  16.4911673   2.0461673  18.1910113  15.8091673   1.9591673
  17.1080113  16.8921673   7.7181673  17.4000113  16.8251673   8.5381673
  16.4820113  16.2871673   7.6731673  17.0590113  16.7931673   7.8331673
  12.0220113   3.0491673   9.7101673  12.0180113   3.6361673  10.3561673
  12.6160113   3.3611673   9.1531673  12.1090113   3.1821673   9.7231673
  24.3600113  13.3831673  10.2521673  24.3260113  13.7651673  11.0361673
  25.2140113  13.3411673  10.0811673  24.4810113  13.4331673  10.3431673
  15.1010113  15.0541673   6.8401673  14.4030113  14.5461673   6.9661673
  15.3610113  14.8491673   6.0321673  15.0360113  14.9491673   6.7391673
  22.8120113  16.5471673   7.7501673  23.5800113  16.4671673   7.3441673
  22.2290113  16.4261673   7.1121673  22.8390113  16.5171673   7.5961673
  16.4620113  13.9051673   9.4071673  17.3030113  13.9681673   9.1851673
  16.4250113  14.3021673  10.1831673  16.5810113  13.9731673   9.4891673
  18.4250113   9.4161673   4.1561673  18.5970113   9.2061673   4.9851673
  17.7700113   8.8821673   3.9401673  18.3540113   9.3061673   4.2471673
  24.6530113   3.3301673   7.6711673  24.5580113   3.6491673   8.4771673
  24.0600113   2.6911673   7.6331673  24.5510113   3.2821673   7.7851673
  19.1750113   9.3541673   6.7461673  19.2280113  10.2011673   6.9481673
  18.8900113   8.9841673   7.4831673  19.1410113   9.4241673   6.8841673
  25.3520113  10.0491673   5.8761673  24.8380113   9.6371673   6.4471673
  25.2260113  10.8931673   6.0571673  25.2580113  10.1131673   5.9871673
  11.9960113  13.7251673  12.9571673  12.7520113  14.0741673  13.2151673
  12.1730113  12.8721673  12.9001673  12.1340113  13.6501673  12.9871673
  28.3730113   3.5101673   8.8151673  29.1450113   3.2851673   9.1521673
  27.8980113   3.7271673   9.5151673  28.4170113   3.5091673   8.9681673
  14.5080113  16.9451673   2.5711673  13.8350113  16.4471673   2.3261673
  14.9110113  17.1301673   1.8201673  14.4680113  16.8991673   2.4241673
  14.0580113   3.8951673   4.8671673  14.9010113   4.1151673   4.8241673
  13.6690113   4.4681673   4.3361673  14.1250113   4.0121673   4.7821673
  30.8390113  14.9971673  10.2571673  30.1570113  15.3071673   9.8101673
  30.4700113  14.5391673  10.9021673  30.6830113  14.9751673  10.2861673
  12.2650113  11.8701673   2.8891673  11.5980113  12.3581673   3.1651673
  12.9450113  12.4151673   2.9181673  12.2670113  12.0221673   2.9341673
  19.9120113   5.5801673  12.9851673  19.4280113   6.1571673  13.4271673
  19.8840113   5.8751673  12.1641673  19.8360113   5.7091673  12.9291673
  31.0100113   6.2641673   7.5971673  31.2250113   5.4641673   7.3211673
  30.1600113   6.3241673   7.4081673  30.9160113   6.1551673   7.5281673
  16.7070113  11.7181673   4.6561673  17.1740113  12.0071673   5.3341673
  17.2790113  11.2401673   4.2021673  16.8610113  11.6901673   4.6891673
  25.1430113   3.7321673   2.3931673  25.4870113   3.8841673   3.1801673
  24.6900113   2.9941673   2.5061673  25.1270113   3.6451673   2.5261673
  13.2730113   9.3881673   3.2001673  13.7040113   9.2591673   2.4531673
  13.0680113  10.2361673   3.1741673  13.3060113   9.4941673   3.0861673
  28.6730113  15.3791673   8.3471673  28.0020113  15.8931673   8.5651673
  28.7360113  15.4791673   7.4831673  28.5830113  15.4701673   8.2521673
  15.4870113   6.3871673  11.3441673  14.9510113   5.8811673  11.8121673
  15.5070113   5.9971673  10.5641673  15.4100113   6.2541673  11.2981673
  16.1390113   7.6141673   3.0831673  15.3580113   7.5551673   2.7001673
  16.2110113   6.8621673   3.5201673  16.0340113   7.4951673   3.0911673
  16.5690113   7.3511673   6.5511673  16.5940113   6.6761673   6.0001673
  15.9230113   7.8471673   6.2391673  16.4780113   7.3241673   6.4241673
  26.4640113   5.0641673   4.9471673  25.8020113   5.3921673   5.4101673
  26.6510113   5.6981673   4.3781673  26.3940113   5.2061673   4.9311673
  20.6690113  16.1281673   5.9431673  20.3920113  15.4871673   5.4201673
  20.4610113  16.8541673   5.5051673  20.5980113  16.1411673   5.8011673
  14.3680113   8.7061673  12.1101673  14.3310113   9.2071673  11.3961673
  14.6990113   7.9541673  11.8151673  14.4110113   8.6681673  11.9611673
  25.9710113  10.9111673  10.3681673  26.4550113  11.6291673  10.4661673
  26.3650113  10.4841673   9.7171673  26.1010113  10.9541673  10.2861673
  20.2670113  13.7561673  11.5451673  20.6210113  13.5781673  12.3221673
  19.8310113  13.0271673  11.3461673  20.2550113  13.6221673  11.6311673
  21.2390113   4.5031673   4.1831673  21.7190113   5.2021673   4.3911673
  21.6120113   3.8561673   4.6341673  21.3650113   4.5111673   4.2801673
  24.4450113  14.6081673   4.2821673  23.8420113  14.3121673   3.7251673
  24.9900113  15.0601673   3.7731673  24.4360113  14.6311673   4.1241673
  24.4580113  11.4591673   3.6821673  23.6610113  11.6831673   3.9561673
  24.7160113  10.8651673   4.2671673  24.3780113  11.4041673   3.8091673
  27.7180113   9.4571673   8.5281673  27.7730113   9.5821673   7.6661673
  28.4710113   9.7771673   8.8301673  27.8370113   9.5221673   8.4451673
  23.9090113  14.8061673  12.8051673  24.0730113  15.0891673  13.6141673
  24.1720113  15.4671673  12.3001673  23.9720113  14.9461673  12.8501673
  23.4490113   9.2631673   8.1281673  23.2940113   9.8731673   8.7321673
  23.9830113   8.7051673   8.5341673  23.5050113   9.2711673   8.2771673
  27.0590113  11.9921673   4.6551673  26.5800113  12.2901673   3.9891673
  26.7030113  11.2161673   4.8331673  26.9360113  11.9211673   4.5831673
  21.0560113   9.7101673   3.2171673  20.2090113   9.5161673   3.2981673
  21.3800113   9.5451673   4.0101673  20.9780113   9.6571673   3.3461673
  14.9040113   9.4031673   5.5331673  15.6260113   9.8911673   5.4961673
  14.6340113   9.3731673   4.7041673  14.9710113   9.4711673   5.4051673
  18.1340113   4.5741673   2.2681673  18.9800113   4.3841673   2.3661673
  17.7640113   3.7971673   2.1301673  18.2040113   4.4311673   2.2621673
  27.9900113   8.9341673   5.7741673  27.9830113   8.1581673   6.1721673
  27.1490113   9.1681673   5.7671673  27.8650113   8.8541673   5.8321673
  14.2990113  10.4551673   9.8111673  13.8780113   9.9371673   9.2501673
  13.9470113  11.2411673   9.6681673  14.1850113  10.4951673   9.7071673
  29.2460113   9.0051673   3.2111673  28.9600113   9.4061673   3.9311673
  30.1060113   8.9431673   3.3381673  29.3310113   9.0551673   3.3361673
  26.9080113   2.9291673  11.7511673  26.3830113   3.3881673  12.2751673
  26.5470113   2.1341673  11.7451673  26.7770113   2.8791673  11.8271673
  12.4150113   1.7771673   3.6551673  12.4590113   2.1211673   2.8541673
  13.1700113   2.0141673   4.0221673  12.5330113   1.8631673   3.5911673
  30.3770113  14.6381673   3.7401673  30.6670113  14.8951673   2.9591673
  31.0720113  14.7341673   4.2591673  30.5230113  14.6901673   3.7011673
  25.4000113   6.4981673  11.8271673  25.4730113   6.6021673  12.6901673
  24.7660113   7.0561673  11.6061673  25.3170113   6.5961673  11.9221673
  27.6680113   6.8171673  10.1921673  27.9870113   7.6031673  10.3951673
  27.2980113   6.5471673  10.9351673  27.6610113   6.8931673  10.3321673
  30.3660113   7.3591673  12.9271673  30.3140113   7.0181673  12.1261673
  31.1030113   7.8261673  12.9051673  30.4670113   7.3781673  12.8051673
  29.9040113  11.0351673   9.1331673  30.5320113  10.4861673   8.8771673
  29.8430113  11.6001673   8.4711673  29.9880113  11.0381673   8.9971673
  19.0380113  12.2661673   6.4291673  18.7400113  12.8581673   6.9961673
  19.0930113  12.7081673   5.6801673  19.0020113  12.4191673   6.4021673
  17.0170113  11.2161673   9.8271673  16.2110113  10.9261673   9.9941673
  16.9280113  12.0841673   9.8331673  16.8850113  11.3011673   9.8521673
  21.5540113   8.6891673   5.9201673  22.0300113   9.0631673   6.5481673
  20.7310113   8.8231673   6.1791673  21.5030113   8.7641673   6.0511673
  18.2640113   4.2921673   8.6611673  18.4250113   3.5481673   9.0881673
  18.2190113   4.0431673   7.8261673  18.2810113   4.1451673   8.6011673
  19.0010113  14.3101673   4.5371673  18.3770113  14.8921673   4.3551673
  19.2490113  14.0241673   3.7511673  18.9450113  14.3541673   4.3941673
  23.3100113  10.9441673  11.5261673  24.0670113  11.2301673  11.2001673
  22.7630113  10.9961673  10.8481673  23.3410113  10.9941673  11.3771673
  27.2190113  13.4941673  10.0301673  27.5650113  13.7641673  10.7841673
  27.5130113  14.0761673   9.4501673  27.3140113  13.6201673  10.0561673
  16.5250113   5.1531673   4.6021673  16.9650113   5.0501673   3.8561673
  17.0700113   4.8401673   5.2071673  16.6700113   5.0921673   4.5811673
  24.5410113   4.2551673  10.1941673  23.8930113   4.7251673  10.5421673
  25.1060113   4.1661673  10.8531673  24.5290113   4.3111673  10.3431673
  24.2290113   5.7921673   6.4921673  24.5310113   6.2121673   7.1951673
  24.2650113   4.9521673   6.7241673  24.2790113   5.7301673   6.6301673
  21.6540113  15.9591673  10.4171673  22.1320113  15.3591673  10.0011673
  21.3030113  15.5161673  11.0821673  21.6730113  15.8051673  10.4541673
  21.7130113  11.1781673   9.4371673  20.9180113  11.1141673   9.7881673
  21.7840113  12.0251673   9.2421673  21.6060113  11.2931673   9.4601673
  17.5430113  17.3851673   4.7541673  17.5540113  17.4441673   5.6241673
  17.1180113  16.6381673   4.6041673  17.4820113  17.2831673   4.8601673
  22.2020113  13.8251673   8.5451673  22.8890113  13.7111673   9.0701673
  22.3360113  14.6161673   8.2011673  22.3230113  13.9251673   8.5721673
  30.3780113   6.4341673  10.3561673  29.5230113   6.3121673  10.4821673
  30.5310113   6.0391673   9.5931673  30.2740113   6.3571673  10.2621673
  24.8910113   7.0991673   8.9321673  24.6360113   6.3801673   9.3541673
  25.7120113   7.2151673   9.2021673  24.9750113   7.0101673   9.0341673
  14.3070113  16.8831673  10.1961673  13.6530113  16.3141673  10.2941673
  13.9320113  17.6561673  10.3471673  14.1550113  16.9131673  10.2331673
  22.8250113   8.2891673  12.1191673  23.1480113   8.9751673  11.6871673
  22.1210113   8.6121673  12.5211673  22.7680113   8.4381673  12.1141673
  25.9090113  16.6631673   3.0481673  25.4580113  17.3061673   3.4271673
  26.6170113  16.5841673   3.5531673  25.9470113  16.7461673   3.1791673
  22.6100113  11.7531673   5.9781673  21.9160113  12.1551673   6.3211673
  23.2870113  12.1861673   6.3171673  22.6070113  11.8761673   6.0791673
  27.9870113  14.3461673  12.5581673  28.7630113  13.9561673  12.6411673
  27.5180113  14.0101673  13.2131673  28.0320113  14.2391673  12.6671673
  15.6780113   5.2911673   8.3251673  16.0530113   5.9101673   7.8381673
  16.3520113   4.8171673   8.6101673  15.8330113   5.3131673   8.2951673
  13.4530113   3.7391673   7.6001673  13.5300113   3.5701673   6.7471673
  14.1990113   4.1451673   7.7971673  13.5740113   3.7741673   7.5031673
  28.1140113   6.5251673   7.3961673  28.1120113   5.6621673   7.5201673
  28.1810113   6.8491673   8.2031673  28.1240113   6.4451673   7.5331673
  12.8500113   8.9651673   7.8241673  13.1700113   9.1841673   7.0431673
  12.7500113   8.1001673   7.7691673  12.8820113   8.8701673   7.7011673
  26.5850113   2.0311673   4.8321673  27.4400113   2.1301673   4.9771673
  26.2160113   2.5841673   5.3971673  26.6570113   2.1281673   4.9371673
  17.6130113   8.2571673   9.2091673  17.2170113   9.0311673   9.2841673
  17.2070113   7.8841673   8.5331673  17.4950113   8.3161673   9.1201673
  26.8890113   7.3111673   3.3231673  27.5550113   7.8521673   3.4831673
  26.5440113   7.6221673   2.5841673  26.9360113   7.4371673   3.2381673
  24.8770113  12.8301673   6.8211673  25.0830113  13.1311673   7.6131673
  24.8160113  13.5521673   6.3361673  24.8980113  12.9811673   6.8661673
  24.4110113  17.0441673  11.0671673  23.6580113  17.0261673  10.6261673
  24.5790113  17.8961673  11.1511673  24.3250113  17.1671673  11.0141673
  19.6480113   6.3111673  10.2371673  19.3260113   5.7351673   9.6671673
  19.2890113   7.0661673   9.9911673  19.5480113   6.3371673  10.1171673
  29.6890113  11.4691673   6.2791673  29.6570113  10.6071673   6.1441673
  28.9960113  11.7711673   5.8451673  29.5820113  11.3861673   6.1951673
  18.0830113  16.6671673  10.4851673  18.1240113  16.7931673  11.3481673
  18.7340113  16.1071673  10.3291673  18.1850113  16.6031673  10.5901673
  27.7940113  14.7291673   5.0761673  28.3210113  14.6461673   4.3851673
  27.4030113  13.9511673   5.1301673  27.8140113  14.6021673   4.9821673
  15.6760113  15.0501673  11.8451673  16.2710113  15.4811673  12.3171673
  15.3120113  15.6741673  11.3561673  15.7100113  15.2061673  11.8421673
  23.6670113   5.9811673   1.7771673  24.2180113   5.3741673   2.0771673
  23.2420113   6.2441673   2.4921673  23.6860113   5.9301673   1.9261673
  13.6030113  13.0391673   8.7741673  13.0290113  13.4551673   9.2831673
  14.3360113  13.5041673   8.8691673  13.6270113  13.1691673   8.8631673
  28.9110113   9.1851673  11.4901673  29.5450113   9.0151673  12.0641673
  29.3280113   9.5881673  10.8381673  29.0660113   9.2201673  11.4791673
  29.5360113   3.7491673  12.2281673  29.3400113   4.3931673  12.7831673
  28.8140113   3.2591673  12.2201673  29.4010113   3.7721673  12.3091673
  29.4350113   4.6901673   5.1991673  28.6020113   4.9401673   5.1271673
  29.3790113   3.8501673   5.4281673  29.3040113   4.6031673   5.2221673
  26.3220113   9.2961673  12.8451673  27.1930113   9.2601673  12.8091673
  26.1030113   9.7161673  12.1131673  26.4190113   9.3521673  12.7321673
  16.0760113  15.1211673   4.0261673  15.9970113  14.3111673   3.7101673
  15.6320113  15.6081673   3.4541673  15.9990113  15.0731673   3.8951673
  13.6480113  17.3651673   7.6071673  14.1410113  17.3091673   8.3251673
  13.8360113  16.6321673   7.1721673  13.7490113  17.2481673   7.6491673
   4.2211673  73.7935993  75.7791313   3.9761673  74.2815993  75.0991313
   5.0841673  73.7205993  75.6791313   4.3121673  73.8545993  75.6641313
   4.0301673  80.7095993  80.4501313   3.5061673  81.3055993  80.8131313
   4.4271673  80.3415993  81.1341313   4.0111673  80.7435993  80.6051313
  10.1741673  88.1505993  73.4211313  10.8751673  87.6315993  73.4171313
   9.5871673  87.7055993  72.9521313  10.1911673  88.0075993  73.3511313
   6.7011673  81.7765993  77.1261313   6.7811673  81.7805993  76.2571313
   6.1171673  81.1445993  77.2751313   6.6261673  81.6835993  77.0201313
   5.5351673  77.3675993  70.1741313   5.0851673  78.0485993  70.4811313
   5.6491673  76.8635993  70.8771313   5.4861673  77.3935993  70.3231313
  10.9291673  77.3405993  76.4691313  10.5831673  78.0185993  76.8951313
  10.2931673  76.7425993  76.4851313  10.7841673  77.3525993  76.5341313
   3.0521673  78.9825993  76.0901313   3.3391673  78.7505993  75.3001313
   3.7841673  79.0615993  76.5591313   3.2021673  78.9595993  76.0431313
   3.7741673  79.3215993  71.2111313   4.0551673  80.1095993  71.4601313
   2.9981673  79.4865993  70.8481313   3.7011673  79.4625993  71.1941313
   2.6331673  87.4925993  71.0271313   2.4521673  88.0375993  71.6841313
   3.3991673  87.7825993  70.7261313   2.7191673  87.6165993  71.0801313
   6.1401673  75.3885993  72.0811313   6.6801673  74.7065993  72.1571313
   6.2021673  75.7865993  72.8551313   6.2291673  75.3465993  72.2071313
   3.3981673  77.7645993  73.3951313   2.8901673  77.1025993  73.1411313
   3.4501673  78.2685993  72.6851313   3.3311673  77.7415993  73.2531313
   3.3981673  74.7055993  73.2861313   2.9431673  74.3035993  72.6601313
   4.1711673  74.8605993  72.9111313   3.4451673  74.6695993  73.1381313
   1.9961673  77.0725993  77.8081313   2.0701673  77.6405993  77.1501313
   2.1171673  77.5645993  78.5181313   2.0241673  77.2295993  77.8161313
   7.2211673  86.9075993  76.2201313   7.9221673  86.4255993  76.4091313
   6.5611673  86.3385993  76.2651313   7.2271673  86.7525993  76.2541313
   7.0441673  73.1865993  76.5321313   7.0931673  72.8685993  77.3431313
   7.3671673  72.5425993  76.0391313   7.0991673  73.0445993  76.5791313
   9.7401673  84.4005993  72.0281313   9.8591673  84.1135993  72.8431313
  10.5471673  84.4215993  71.6981313   9.8761673  84.3615993  72.1001313
   7.6351673  80.9375993  71.6131313   7.4151673  81.6685993  71.1911313
   7.1871673  80.9885993  72.3601313   7.5361673  81.0525993  71.6611313
  11.8221673  75.7985993  71.0661313  11.1601673  75.2305993  71.0891313
  11.6291673  76.3105993  70.3861313  11.6961673  75.7905993  70.9691313
   9.8241673  75.3565993  73.3451313  10.5701673  74.9495993  73.5441313
  10.0871673  76.0715993  72.9201313   9.9731673  75.4025993  73.3121313
   3.7671673  87.8425993  77.9211313   3.2441673  88.4765993  77.6281313
   4.0771673  87.4785993  77.1921313   3.7351673  87.8825993  77.7701313
   6.2781673  77.6445993  78.4181313   6.6221673  77.7965993  79.2051313
   5.8251673  76.9065993  78.5311313   6.2621673  77.5575993  78.5511313
   7.5991673  78.9765993  80.9721313   6.9371673  79.3045993  81.4351313
   7.7861673  79.6105993  80.4031313   7.5291673  79.1185993  80.9561313
   5.7921673  76.9455993  74.4831313   6.2821673  77.6625993  74.4061313
   5.0021673  77.2065993  74.2201313   5.7481673  77.0895993  74.4331313
   2.3741673  78.4155993  80.2081313   2.8541673  79.1145993  80.4161313
   2.7471673  77.7685993  80.6591313   2.5001673  78.4235993  80.3051313
   4.5631673  81.5845993  72.4821313   4.5551673  82.3065993  71.9921313
   3.9241673  81.7195993  73.0591313   4.4681673  81.7115993  72.4951313
   9.5351673  85.4545993  76.4631313   9.8911673  85.1045993  77.1781313
   9.5271673  84.7935993  75.8931313   9.5871673  85.3045993  76.4841313
   5.5801673  88.5205993  80.3071313   4.9771673  88.2245993  79.7501313
   6.1251673  88.9725993  79.7981313   5.5711673  88.5435993  80.1491313
   5.5931673  85.3715993  79.7071313   4.7961673  85.5955993  79.9811313
   5.8511673  84.7775993  80.2921313   5.5131673  85.3165993  79.8341313
   2.9681673  81.5755993  74.8111313   3.0271673  82.2255993  75.3901313
   2.7791673  80.8795993  75.3021313   2.9491673  81.5685993  74.9691313
   8.1941673  85.9045993  80.6801313   7.7151673  86.2025993  80.0141313
   7.8381673  85.1285993  80.8581313   8.0711673  85.8335993  80.6081313
  10.3811673  82.9175993  79.2361313  10.0951673  83.3185993  79.9561313
  11.2411673  82.8555993  79.3631313  10.4661673  82.9675993  79.3611313
  11.5121673  88.5505993  79.7651313  11.8021673  88.8075993  78.9841313
  12.2071673  88.6465993  80.2841313  11.6581673  88.6025993  79.7261313
   8.1171673  87.1535993  71.7471313   8.4511673  86.3475993  71.7821313
   7.3621673  87.0815993  72.1771313   8.0551673  87.0235993  71.8161313
   8.5991673  78.9875993  77.4061313   7.8541673  78.6645993  77.7241313
   8.6011673  79.8135993  77.6861313   8.4891673  79.0615993  77.4941313
   5.4911673  85.0285993  71.1501313   6.1751673  84.5145993  70.9811313
   5.0741673  85.0745993  70.3851313   5.5301673  84.9595993  71.0121313
  10.2171673  79.5525993  71.3941313  10.5951673  80.2295993  70.9941313
   9.3751673  79.7765993  71.4251313  10.1481673  79.6855993  71.3391313
   7.9121673  79.1515993  74.7691313   8.1191673  78.9505993  75.5931313
   8.6681673  79.4195993  74.4271313   8.0541673  79.1615993  74.8401313
   8.9341673  75.2345993  76.2431313   8.2201673  74.7635993  76.4141313
   8.7721673  75.5755993  75.4571313   8.8051673  75.2155993  76.1521313
   9.3771673  83.1785993  74.6231313   9.8531673  82.4495993  74.5751313
   8.5561673  82.8925993  74.5471313   9.3261673  83.0285993  74.6041313
   5.5931673  84.3455993  76.9781313   5.6691673  84.6865993  77.7771313
   5.7621673  83.4985993  77.0991313   5.6291673  84.2705993  77.1141313
   3.1151673  83.6195993  76.5431313   2.8171673  83.3045993  77.3001313
   3.8101673  84.0925993  76.7781313   3.1741673  83.6425993  76.6901313
  10.1471673  80.2915993  74.0651313  10.2501673  80.2335993  73.2011313
  10.8881673  79.9595993  74.3831313  10.2721673  80.2345993  73.9841313
   4.0671673  87.2565993  75.1721313   3.8621673  88.0895993  75.0131313
   3.2921673  86.8745993  75.2941313   3.9221673  87.3235993  75.1671313
   4.1221673  75.4275993  78.0571313   3.4221673  75.9455993  78.0011313
   4.1601673  75.0475993  77.2731313   4.0241673  75.4485993  77.9331313
   7.7201673  75.9435993  80.8571313   8.5751673  76.0425993  81.0021313
   7.3511673  76.4965993  81.4221313   7.7921673  76.0405993  80.9621313
   8.0241673  81.2235993  79.3481313   8.6901673  81.7645993  79.5081313
   7.6791673  81.5345993  78.6091313   8.0711673  81.3495993  79.2631313
   3.2801673  75.8945993  81.0581313   2.5431673  75.4405993  81.1711313
   3.8511673  75.4925993  81.5811313   3.2551673  75.7675993  81.1521313
   8.9291673  88.6415993  81.1011313   9.4561673  88.5585993  80.4101313
   8.5381673  87.8635993  81.1551313   8.9491673  88.5145993  81.0071313
   5.4431673  74.0855993  80.3091313   6.1131673  74.6295993  80.4361313
   4.9401673  74.5095993  79.7361313   5.4681673  74.2285993  80.2431313
   4.8021673  79.8935993  77.8021313   5.3531673  79.2865993  78.1021313
   4.3771673  80.1565993  78.5171313   4.8211673  79.8425993  77.9511313
   6.7721673  81.7245993  74.3641313   6.8401673  80.8745993  74.5451313
   5.9491673  81.8105993  74.0861313   6.6601673  81.6115993  74.3501313
   5.9261673  86.9445993  73.1041313   5.6751673  86.8165993  73.9301313
   5.6091673  86.2495993  72.6831313   5.8421673  86.8235993  73.1641313
  10.5701673  78.6025993  81.2241313   9.7371673  78.8525993  81.1521313
  10.5141673  77.7625993  81.4531313  10.4391673  78.5155993  81.2471313
   2.8121673  85.1525993  72.5341313   3.5291673  84.8055993  72.1781313
   2.7781673  85.9525993  72.1861313   2.9131673  85.2195993  72.4301313
   4.2211673  73.7935993  56.7728903   3.9761673  74.2815993  56.0928903
   5.0841673  73.7205993  56.6728903   4.3121673  73.8545993  56.6578903
   4.0301673  80.7095993  61.4438903   3.5061673  81.3055993  61.8068903
   4.4271673  80.3415993  62.1278903   4.0111673  80.7435993  61.5988903
  10.1741673  88.1505993  54.4148903  10.8751673  87.6315993  54.4108903
   9.5871673  87.7055993  53.9458903  10.1911673  88.0075993  54.3448903
   6.7011673  81.7765993  58.1198903   6.7811673  81.7805993  57.2508903
   6.1171673  81.1445993  58.2688903   6.6261673  81.6835993  58.0138903
   3.5151673  79.7665993  67.5398903   2.6671673  79.6675993  67.3618903
   3.5441673  80.5115993  67.9938903   3.3941673  79.8625993  67.5808903
   8.0731673  72.7265993  66.6538903   7.9151673  73.4955993  66.2718903
   7.3011673  72.5065993  66.9978903   7.9351673  72.8075993  66.6488903
   5.5351673  77.3675993  51.1678903   5.0851673  78.0485993  51.4748903
   5.6491673  76.8635993  51.8708903   5.4861673  77.3935993  51.3168903
  10.9291673  77.3405993  57.4628903  10.5831673  78.0185993  57.8888903
  10.2931673  76.7425993  57.4788903  10.7841673  77.3525993  57.5278903
   2.4581673  74.0565993  68.3108903   2.6361673  73.2475993  68.0358903
   2.3151673  74.4975993  67.5718903   2.4631673  74.0025993  68.1608903
   3.0521673  78.9825993  57.0838903   3.3391673  78.7505993  56.2938903
   3.7841673  79.0615993  57.5528903   3.2021673  78.9595993  57.0368903
   3.7741673  79.3215993  52.2048903   4.0551673  80.1095993  52.4538903
   2.9981673  79.4865993  51.8418903   3.7011673  79.4625993  52.1878903
  10.6041673  75.6635993  62.8318903  11.3611673  75.7355993  62.4038903
  10.6671673  74.8905993  63.2308903  10.7251673  75.5605993  62.8268903
   5.4951673  87.2955993  67.2708903   5.4611673  87.6775993  68.0548903
   6.3491673  87.2535993  67.0998903   5.6161673  87.3455993  67.3618903
   2.6331673  87.4925993  52.0208903   2.4521673  88.0375993  52.6778903
   3.3991673  87.7825993  51.7198903   2.7191673  87.6165993  52.0738903
   6.1401673  75.3885993  53.0748903   6.6801673  74.7065993  53.1508903
   6.2021673  75.7865993  53.8488903   6.2291673  75.3465993  53.2008903
   3.3981673  77.7645993  54.3888903   2.8901673  77.1025993  54.1348903
   3.4501673  78.2685993  53.6788903   3.3311673  77.7415993  54.2468903
   3.3981673  74.7055993  54.2798903   2.9431673  74.3035993  53.6538903
   4.1711673  74.8605993  53.9048903   3.4451673  74.6695993  54.1318903
   1.9961673  77.0725993  58.8018903   2.0701673  77.6405993  58.1438903
   2.1171673  77.5645993  59.5118903   2.0241673  77.2295993  58.8098903
   7.2211673  86.9075993  57.2138903   7.9221673  86.4255993  57.4028903
   6.5611673  86.3385993  57.2588903   7.2271673  86.7525993  57.2478903
   5.7881673  77.2425993  64.6898903   5.6931673  77.5615993  65.4958903
   5.1951673  76.6035993  64.6518903   5.6861673  77.1945993  64.8038903
   6.4871673  83.9615993  62.8948903   5.9731673  83.5495993  63.4658903
   6.3611673  84.8055993  63.0758903   6.3931673  84.0255993  63.0058903
   7.0441673  73.1865993  57.5258903   7.0931673  72.8685993  58.3368903
   7.3671673  72.5425993  57.0328903   7.0991673  73.0445993  57.5728903
   9.5081673  77.4225993  65.8338903  10.2801673  77.1975993  66.1708903
   9.0331673  77.6395993  66.5338903   9.5521673  77.4215993  65.9868903
   9.7401673  84.4005993  53.0218903   9.8591673  84.1135993  53.8368903
  10.5471673  84.4215993  52.6918903   9.8761673  84.3615993  53.0938903
   7.6351673  80.9375993  52.6068903   7.4151673  81.6685993  52.1848903
   7.1871673  80.9885993  53.3538903   7.5361673  81.0525993  52.6548903
  11.8221673  75.7985993  52.0598903  11.1601673  75.2305993  52.0828903
  11.6291673  76.3105993  51.3798903  11.6961673  75.7905993  51.9628903
  12.1451673  80.1765993  64.6158903  12.3601673  79.3765993  64.3398903
  11.2951673  80.2365993  64.4268903  12.0511673  80.0675993  64.5468903
   9.8241673  75.3565993  54.3388903  10.5701673  74.9495993  54.5378903
  10.0871673  76.0715993  53.9138903   9.9731673  75.4025993  54.3058903
   3.7671673  87.8425993  58.9148903   3.2441673  88.4765993  58.6218903
   4.0771673  87.4785993  58.1858903   3.7351673  87.8825993  58.7638903
   6.2781673  77.6445993  59.4118903   6.6221673  77.7965993  60.1988903
   5.8251673  76.9065993  59.5248903   6.2621673  77.5575993  59.5448903
   7.5991673  78.9765993  61.9658903   6.9371673  79.3045993  62.4288903
   7.7861673  79.6105993  61.3968903   7.5291673  79.1185993  61.9498903
   4.2441673  74.8825993  65.3948903   4.3931673  74.0575993  65.1518903
   4.6231673  74.9375993  66.1788903   4.3221673  74.7685993  65.4748903
   5.7921673  76.9455993  55.4768903   6.2821673  77.6625993  55.3998903
   5.0021673  77.2065993  55.2138903   5.7481673  77.0895993  55.4268903
   7.1061673  84.8235993  67.3868903   7.5901673  85.5415993  67.4848903
   7.5001673  84.3965993  66.7358903   7.2361673  84.8665993  67.3048903
   2.3741673  78.4155993  61.2018903   2.8541673  79.1145993  61.4098903
   2.7471673  77.7685993  61.6528903   2.5001673  78.4235993  61.2988903
   4.5631673  81.5845993  53.4758903   4.5551673  82.3065993  52.9858903
   3.9241673  81.7195993  54.0528903   4.4681673  81.7115993  53.4888903
   9.5351673  85.4545993  57.4568903   9.8911673  85.1045993  58.1718903
   9.5271673  84.7935993  56.8868903   9.5871673  85.3045993  57.4778903
   5.5801673  88.5205993  61.3008903   4.9771673  88.2245993  60.7438903
   6.1251673  88.9725993  60.7918903   5.5711673  88.5435993  61.1428903
   5.5931673  85.3715993  60.7008903   4.7961673  85.5955993  60.9748903
   5.8511673  84.7775993  61.2858903   5.5131673  85.3165993  60.8278903
   8.8531673  83.3695993  65.5468903   8.9081673  83.4945993  64.6848903
   9.6061673  83.6895993  65.8488903   8.9721673  83.4345993  65.4638903
   9.8851673  73.6675993  68.5338903   9.2481673  73.2675993  68.0918903
   9.9111673  73.2365993  69.2918903   9.7951673  73.5455993  68.5798903
   4.5841673  83.1755993  65.1468903   4.4291673  83.7855993  65.7508903
   5.1181673  82.6175993  65.5528903   4.6401673  83.1835993  65.2958903
   2.9681673  81.5755993  55.8048903   3.0271673  82.2255993  56.3838903
   2.7791673  80.8795993  56.2958903   2.9491673  81.5685993  55.9628903
   8.1941673  85.9045993  61.6738903   7.7151673  86.2025993  61.0078903
   7.8381673  85.1285993  61.8518903   8.0711673  85.8335993  61.6018903
   9.1251673  82.8465993  62.7928903   9.1181673  82.0705993  63.1908903
   8.2841673  83.0805993  62.7858903   9.0001673  82.7665993  62.8508903
  10.3811673  82.9175993  60.2298903  10.0951673  83.3185993  60.9498903
  11.2411673  82.8555993  60.3568903  10.4661673  82.9675993  60.3548903
   8.0431673  76.8415993  68.7698903   7.5181673  77.3005993  69.2938903
   7.6821673  76.0465993  68.7638903   7.9121673  76.7915993  68.8458903
  11.5121673  88.5505993  60.7588903  11.8021673  88.8075993  59.9778903
  12.2071673  88.6465993  61.2778903  11.6581673  88.6025993  60.7198903
   6.5351673  80.4105993  68.8458903   6.6081673  80.5145993  69.7088903
   5.9011673  80.9685993  68.6248903   6.4521673  80.5085993  68.9408903
   8.8031673  80.7295993  67.2108903   9.1221673  81.5155993  67.4138903
   8.4331673  80.4595993  67.9538903   8.7961673  80.8055993  67.3508903
   8.1171673  87.1535993  52.7408903   8.4511673  86.3475993  52.7758903
   7.3621673  87.0815993  53.1708903   8.0551673  87.0235993  52.8098903
   8.5991673  78.9875993  58.3998903   7.8541673  78.6645993  58.7178903
   8.6011673  79.8135993  58.6798903   8.4891673  79.0615993  58.4878903
  11.5011673  81.2715993  69.9458903  11.4491673  80.9305993  69.1448903
  12.2381673  81.7385993  69.9238903  11.6021673  81.2905993  69.8238903
  11.0391673  84.9475993  66.1518903  11.6671673  84.3985993  65.8958903
  10.9781673  85.5125993  65.4898903  11.1231673  84.9505993  66.0158903
   5.4911673  85.0285993  52.1438903   6.1751673  84.5145993  51.9748903
   5.0741673  85.0745993  51.3788903   5.5301673  84.9595993  52.0058903
   7.5111673  75.3175993  65.8608903   8.2551673  75.7695993  65.7978903
   6.9451673  75.7875993  65.3918903   7.5381673  75.4545993  65.7828903
   2.6891673  82.6015993  62.9388903   3.1651673  82.9755993  63.5668903
   1.8661673  82.7355993  63.1978903   2.6381673  82.6765993  63.0698903
   8.7961673  73.2975993  63.5308903   8.5161673  74.1225993  63.4868903
   9.5121673  73.3505993  64.0268903   8.8611673  73.4275993  63.5978903
   4.4451673  84.8565993  68.5448903   5.2021673  85.1425993  68.2188903
   3.8981673  84.9085993  67.8668903   4.4761673  84.9065993  68.3958903
   8.3541673  87.4065993  67.0488903   8.7001673  87.6765993  67.8028903
   8.6481673  87.9885993  66.4688903   8.4491673  87.5325993  67.0748903
  10.2171673  79.5525993  52.3878903  10.5951673  80.2295993  51.9878903
   9.3751673  79.7765993  52.4188903  10.1481673  79.6855993  52.3328903
   5.6761673  78.1675993  67.2128903   5.0281673  78.6375993  67.5608903
   6.2411673  78.0785993  67.8718903   5.6641673  78.2235993  67.3618903
   5.3641673  79.7045993  63.5108903   5.6661673  80.1245993  64.2138903
   5.4001673  78.8645993  63.7428903   5.4141673  79.6425993  63.6488903
   7.9121673  79.1515993  55.7628903   8.1191673  78.9505993  56.5868903
   8.6681673  79.4195993  55.4208903   8.0541673  79.1615993  55.8338903
   8.9341673  75.2345993  57.2368903   8.2201673  74.7635993  57.4078903
   8.7721673  75.5755993  56.4508903   8.8051673  75.2155993  57.1458903
   9.3771673  83.1785993  55.6168903   9.8531673  82.4495993  55.5688903
   8.5561673  82.8925993  55.5408903   9.3261673  83.0285993  55.5978903
   2.8481673  85.0905993  66.4558903   2.0531673  85.0265993  66.8068903
   2.9191673  85.9375993  66.2608903   2.7411673  85.2055993  66.4788903
   5.5931673  84.3455993  57.9718903   5.6691673  84.6865993  58.7708903
   5.7621673  83.4985993  58.0928903   5.6291673  84.2705993  58.1078903
   3.1151673  83.6195993  57.5368903   2.8171673  83.3045993  58.2938903
   3.8101673  84.0925993  57.7718903   3.1741673  83.6425993  57.6838903
   3.3371673  87.7375993  65.5638903   4.0241673  87.6235993  66.0888903
   3.4711673  88.5285993  65.2198903   3.4581673  87.8375993  65.5908903
  11.5131673  80.3465993  67.3748903  10.6581673  80.2245993  67.5008903
  11.6661673  79.9515993  66.6118903  11.4091673  80.2695993  67.2808903
   6.0261673  81.0115993  65.9508903   5.7711673  80.2925993  66.3728903
   6.8471673  81.1275993  66.2208903   6.1101673  80.9225993  66.0528903
   3.9601673  82.2015993  69.1378903   4.2831673  82.8875993  68.7058903
   3.2561673  82.5245993  69.5398903   3.9031673  82.3505993  69.1328903
   3.7451673  85.6655993  62.9968903   3.0511673  86.0675993  63.3398903
   4.4221673  86.0985993  63.3358903   3.7421673  85.7885993  63.0978903
   9.1221673  88.2585993  69.5768903   9.8981673  87.8685993  69.6598903
   8.6531673  87.9225993  70.2318903   9.1671673  88.1515993  69.6858903
  10.1471673  80.2915993  55.0588903  10.2501673  80.2335993  54.1948903
  10.8881673  79.9595993  55.3768903  10.2721673  80.2345993  54.9778903
   4.0671673  87.2565993  56.1658903   3.8621673  88.0895993  56.0068903
   3.2921673  86.8745993  56.2878903   3.9221673  87.3235993  56.1608903
   9.2491673  80.4375993  64.4148903   9.2471673  79.5745993  64.5388903
   9.3161673  80.7615993  65.2218903   9.2591673  80.3575993  64.5518903
   5.1281673  75.2375993  68.1968903   5.2201673  75.9495993  68.6908903
   4.4911673  74.7925993  68.5938903   5.0471673  75.2765993  68.3288903
   4.1221673  75.4275993  59.0508903   3.4221673  75.9455993  58.9948903
   4.1601673  75.0475993  58.2668903   4.0241673  75.4485993  58.9268903
   7.7201673  75.9435993  61.8508903   8.5751673  76.0425993  61.9958903
   7.3511673  76.4965993  62.4158903   7.7921673  76.0405993  61.9558903
   8.0241673  81.2235993  60.3418903   8.6901673  81.7645993  60.5018903
   7.6791673  81.5345993  59.6028903   8.0711673  81.3495993  60.2568903
  11.1951673  73.7815993  65.0068903  11.1431673  73.7375993  65.8768903
  11.8821673  73.2785993  64.8168903  11.2891673  73.7015993  65.1068903
   3.2801673  75.8945993  62.0518903   2.5431673  75.4405993  62.1648903
   3.8511673  75.4925993  62.5748903   3.2551673  75.7675993  62.1458903
   6.0121673  86.7425993  63.8398903   6.2181673  87.0435993  64.6318903
   5.9511673  87.4645993  63.3548903   6.0331673  86.8935993  63.8848903
  10.8241673  85.3815993  63.2978903  10.7921673  84.5195993  63.1628903
  10.1311673  85.6835993  62.8638903  10.7171673  85.2985993  63.2138903
   8.9291673  88.6415993  62.0948903   9.4561673  88.5585993  61.4038903
   8.5381673  87.8635993  62.1488903   8.9491673  88.5145993  62.0008903
   5.4431673  74.0855993  61.3028903   6.1131673  74.6295993  61.4298903
   4.9401673  74.5095993  60.7298903   5.4681673  74.2285993  61.2368903
   4.8021673  79.8935993  58.7958903   5.3531673  79.2865993  59.0958903
   4.3771673  80.1565993  59.5108903   4.8211673  79.8425993  58.9448903
   6.7721673  81.7245993  55.3578903   6.8401673  80.8745993  55.5388903
   5.9491673  81.8105993  55.0798903   6.6601673  81.6115993  55.3438903
  10.0461673  83.0975993  68.5088903  10.6801673  82.9275993  69.0828903
  10.4631673  83.5005993  67.8568903  10.2011673  83.1325993  68.4978903
   5.9261673  86.9445993  54.0978903   5.6751673  86.8165993  54.9238903
   5.6091673  86.2495993  53.6768903   5.8421673  86.8235993  54.1578903
  10.6711673  77.6615993  69.2468903  10.4751673  78.3055993  69.8018903
   9.9491673  77.1715993  69.2388903  10.5361673  77.6845993  69.3278903
  10.5701673  78.6025993  62.2178903   9.7371673  78.8525993  62.1458903
  10.5141673  77.7625993  62.4468903  10.4391673  78.5155993  62.2408903
   7.4571673  83.2085993  69.8638903   8.3281673  83.1725993  69.8278903
   7.2381673  83.6285993  69.1318903   7.5541673  83.2645993  69.7508903
   2.8121673  85.1525993  53.5278903   3.5291673  84.8055993  53.1718903
   2.7781673  85.9525993  53.1798903   2.9131673  85.2195993  53.4238903
   4.2211673  73.7935993  37.7666493   3.9761673  74.2815993  37.0866493
   5.0841673  73.7205993  37.6666493   4.3121673  73.8545993  37.6516493
   4.0301673  80.7095993  42.4376493   3.5061673  81.3055993  42.8006493
   4.4271673  80.3415993  43.1216493   4.0111673  80.7435993  42.5926493
  10.1741673  88.1505993  35.4086493  10.8751673  87.6315993  35.4046493
   9.5871673  87.7055993  34.9396493  10.1911673  88.0075993  35.3386493
   6.7011673  81.7765993  39.1136493   6.7811673  81.7805993  38.2446493
   6.1171673  81.1445993  39.2626493   6.6261673  81.6835993  39.0076493
   3.5151673  79.7665993  48.5336493   2.6671673  79.6675993  48.3556493
   3.5441673  80.5115993  48.9876493   3.3941673  79.8625993  48.5746493
   8.0731673  72.7265993  47.6476493   7.9151673  73.4955993  47.2656493
   7.3011673  72.5065993  47.9916493   7.9351673  72.8075993  47.6426493
   5.5351673  77.3675993  32.1616493   5.0851673  78.0485993  32.4686493
   5.6491673  76.8635993  32.8646493   5.4861673  77.3935993  32.3106493
  10.9291673  77.3405993  38.4566493  10.5831673  78.0185993  38.8826493
  10.2931673  76.7425993  38.4726493  10.7841673  77.3525993  38.5216493
   2.4581673  74.0565993  49.3046493   2.6361673  73.2475993  49.0296493
   2.3151673  74.4975993  48.5656493   2.4631673  74.0025993  49.1546493
   3.0521673  78.9825993  38.0776493   3.3391673  78.7505993  37.2876493
   3.7841673  79.0615993  38.5466493   3.2021673  78.9595993  38.0306493
   3.7741673  79.3215993  33.1986493   4.0551673  80.1095993  33.4476493
   2.9981673  79.4865993  32.8356493   3.7011673  79.4625993  33.1816493
  10.6041673  75.6635993  43.8256493  11.3611673  75.7355993  43.3976493
  10.6671673  74.8905993  44.2246493  10.7251673  75.5605993  43.8206493
   5.4951673  87.2955993  48.2646493   5.4611673  87.6775993  49.0486493
   6.3491673  87.2535993  48.0936493   5.6161673  87.3455993  48.3556493
   2.6331673  87.4925993  33.0146493   2.4521673  88.0375993  33.6716493
   3.3991673  87.7825993  32.7136493   2.7191673  87.6165993  33.0676493
   6.1401673  75.3885993  34.0686493   6.6801673  74.7065993  34.1446493
   6.2021673  75.7865993  34.8426493   6.2291673  75.3465993  34.1946493
   3.3981673  77.7645993  35.3826493   2.8901673  77.1025993  35.1286493
   3.4501673  78.2685993  34.6726493   3.3311673  77.7415993  35.2406493
   3.3981673  74.7055993  35.2736493   2.9431673  74.3035993  34.6476493
   4.1711673  74.8605993  34.8986493   3.4451673  74.6695993  35.1256493
   1.9961673  77.0725993  39.7956493   2.0701673  77.6405993  39.1376493
   2.1171673  77.5645993  40.5056493   2.0241673  77.2295993  39.8036493
   7.2211673  86.9075993  38.2076493   7.9221673  86.4255993  38.3966493
   6.5611673  86.3385993  38.2526493   7.2271673  86.7525993  38.2416493
   5.7881673  77.2425993  45.6836493   5.6931673  77.5615993  46.4896493
   5.1951673  76.6035993  45.6456493   5.6861673  77.1945993  45.7976493
   6.4871673  83.9615993  43.8886493   5.9731673  83.5495993  44.4596493
   6.3611673  84.8055993  44.0696493   6.3931673  84.0255993  43.9996493
   7.0441673  73.1865993  38.5196493   7.0931673  72.8685993  39.3306493
   7.3671673  72.5425993  38.0266493   7.0991673  73.0445993  38.5666493
   9.5081673  77.4225993  46.8276493  10.2801673  77.1975993  47.1646493
   9.0331673  77.6395993  47.5276493   9.5521673  77.4215993  46.9806493
   9.7401673  84.4005993  34.0156493   9.8591673  84.1135993  34.8306493
  10.5471673  84.4215993  33.6856493   9.8761673  84.3615993  34.0876493
   7.6351673  80.9375993  33.6006493   7.4151673  81.6685993  33.1786493
   7.1871673  80.9885993  34.3476493   7.5361673  81.0525993  33.6486493
  11.8221673  75.7985993  33.0536493  11.1601673  75.2305993  33.0766493
  11.6291673  76.3105993  32.3736493  11.6961673  75.7905993  32.9566493
  12.1451673  80.1765993  45.6096493  12.3601673  79.3765993  45.3336493
  11.2951673  80.2365993  45.4206493  12.0511673  80.0675993  45.5406493
   9.8241673  75.3565993  35.3326493  10.5701673  74.9495993  35.5316493
  10.0871673  76.0715993  34.9076493   9.9731673  75.4025993  35.2996493
   3.7671673  87.8425993  39.9086493   3.2441673  88.4765993  39.6156493
   4.0771673  87.4785993  39.1796493   3.7351673  87.8825993  39.7576493
   6.2781673  77.6445993  40.4056493   6.6221673  77.7965993  41.1926493
   5.8251673  76.9065993  40.5186493   6.2621673  77.5575993  40.5386493
   7.5991673  78.9765993  42.9596493   6.9371673  79.3045993  43.4226493
   7.7861673  79.6105993  42.3906493   7.5291673  79.1185993  42.9436493
   4.2441673  74.8825993  46.3886493   4.3931673  74.0575993  46.1456493
   4.6231673  74.9375993  47.1726493   4.3221673  74.7685993  46.4686493
   5.7921673  76.9455993  36.4706493   6.2821673  77.6625993  36.3936493
   5.0021673  77.2065993  36.2076493   5.7481673  77.0895993  36.4206493
   7.1061673  84.8235993  48.3806493   7.5901673  85.5415993  48.4786493
   7.5001673  84.3965993  47.7296493   7.2361673  84.8665993  48.2986493
   2.3741673  78.4155993  42.1956493   2.8541673  79.1145993  42.4036493
   2.7471673  77.7685993  42.6466493   2.5001673  78.4235993  42.2926493
   4.5631673  81.5845993  34.4696493   4.5551673  82.3065993  33.9796493
   3.9241673  81.7195993  35.0466493   4.4681673  81.7115993  34.4826493
   9.5351673  85.4545993  38.4506493   9.8911673  85.1045993  39.1656493
   9.5271673  84.7935993  37.8806493   9.5871673  85.3045993  38.4716493
   5.5801673  88.5205993  42.2946493   4.9771673  88.2245993  41.7376493
   6.1251673  88.9725993  41.7856493   5.5711673  88.5435993  42.1366493
   5.5931673  85.3715993  41.6946493   4.7961673  85.5955993  41.9686493
   5.8511673  84.7775993  42.2796493   5.5131673  85.3165993  41.8216493
   8.8531673  83.3695993  46.5406493   8.9081673  83.4945993  45.6786493
   9.6061673  83.6895993  46.8426493   8.9721673  83.4345993  46.4576493
   9.8851673  73.6675993  49.5276493   9.2481673  73.2675993  49.0856493
   9.9111673  73.2365993  50.2856493   9.7951673  73.5455993  49.5736493
   4.5841673  83.1755993  46.1406493   4.4291673  83.7855993  46.7446493
   5.1181673  82.6175993  46.5466493   4.6401673  83.1835993  46.2896493
   2.9681673  81.5755993  36.7986493   3.0271673  82.2255993  37.3776493
   2.7791673  80.8795993  37.2896493   2.9491673  81.5685993  36.9566493
   8.1941673  85.9045993  42.6676493   7.7151673  86.2025993  42.0016493
   7.8381673  85.1285993  42.8456493   8.0711673  85.8335993  42.5956493
   9.1251673  82.8465993  43.7866493   9.1181673  82.0705993  44.1846493
   8.2841673  83.0805993  43.7796493   9.0001673  82.7665993  43.8446493
  10.3811673  82.9175993  41.2236493  10.0951673  83.3185993  41.9436493
  11.2411673  82.8555993  41.3506493  10.4661673  82.9675993  41.3486493
   8.0431673  76.8415993  49.7636493   7.5181673  77.3005993  50.2876493
   7.6821673  76.0465993  49.7576493   7.9121673  76.7915993  49.8396493
  11.5121673  88.5505993  41.7526493  11.8021673  88.8075993  40.9716493
  12.2071673  88.6465993  42.2716493  11.6581673  88.6025993  41.7136493
   6.5351673  80.4105993  49.8396493   6.6081673  80.5145993  50.7026493
   5.9011673  80.9685993  49.6186493   6.4521673  80.5085993  49.9346493
   8.8031673  80.7295993  48.2046493   9.1221673  81.5155993  48.4076493
   8.4331673  80.4595993  48.9476493   8.7961673  80.8055993  48.3446493
   8.1171673  87.1535993  33.7346493   8.4511673  86.3475993  33.7696493
   7.3621673  87.0815993  34.1646493   8.0551673  87.0235993  33.8036493
   8.5991673  78.9875993  39.3936493   7.8541673  78.6645993  39.7116493
   8.6011673  79.8135993  39.6736493   8.4891673  79.0615993  39.4816493
  11.5011673  81.2715993  50.9396493  11.4491673  80.9305993  50.1386493
  12.2381673  81.7385993  50.9176493  11.6021673  81.2905993  50.8176493
  11.0391673  84.9475993  47.1456493  11.6671673  84.3985993  46.8896493
  10.9781673  85.5125993  46.4836493  11.1231673  84.9505993  47.0096493
   5.4911673  85.0285993  33.1376493   6.1751673  84.5145993  32.9686493
   5.0741673  85.0745993  32.3726493   5.5301673  84.9595993  32.9996493
   7.5111673  75.3175993  46.8546493   8.2551673  75.7695993  46.7916493
   6.9451673  75.7875993  46.3856493   7.5381673  75.4545993  46.7766493
   2.6891673  82.6015993  43.9326493   3.1651673  82.9755993  44.5606493
   1.8661673  82.7355993  44.1916493   2.6381673  82.6765993  44.0636493
   8.7961673  73.2975993  44.5246493   8.5161673  74.1225993  44.4806493
   9.5121673  73.3505993  45.0206493   8.8611673  73.4275993  44.5916493
   4.4451673  84.8565993  49.5386493   5.2021673  85.1425993  49.2126493
   3.8981673  84.9085993  48.8606493   4.4761673  84.9065993  49.3896493
   8.3541673  87.4065993  48.0426493   8.7001673  87.6765993  48.7966493
   8.6481673  87.9885993  47.4626493   8.4491673  87.5325993  48.0686493
  10.2171673  79.5525993  33.3816493  10.5951673  80.2295993  32.9816493
   9.3751673  79.7765993  33.4126493  10.1481673  79.6855993  33.3266493
   5.6761673  78.1675993  48.2066493   5.0281673  78.6375993  48.5546493
   6.2411673  78.0785993  48.8656493   5.6641673  78.2235993  48.3556493
   5.3641673  79.7045993  44.5046493   5.6661673  80.1245993  45.2076493
   5.4001673  78.8645993  44.7366493   5.4141673  79.6425993  44.6426493
   7.9121673  79.1515993  36.7566493   8.1191673  78.9505993  37.5806493
   8.6681673  79.4195993  36.4146493   8.0541673  79.1615993  36.8276493
   8.9341673  75.2345993  38.2306493   8.2201673  74.7635993  38.4016493
   8.7721673  75.5755993  37.4446493   8.8051673  75.2155993  38.1396493
   9.3771673  83.1785993  36.6106493   9.8531673  82.4495993  36.5626493
   8.5561673  82.8925993  36.5346493   9.3261673  83.0285993  36.5916493
   2.8481673  85.0905993  47.4496493   2.0531673  85.0265993  47.8006493
   2.9191673  85.9375993  47.2546493   2.7411673  85.2055993  47.4726493
   5.5931673  84.3455993  38.9656493   5.6691673  84.6865993  39.7646493
   5.7621673  83.4985993  39.0866493   5.6291673  84.2705993  39.1016493
   3.1151673  83.6195993  38.5306493   2.8171673  83.3045993  39.2876493
   3.8101673  84.0925993  38.7656493   3.1741673  83.6425993  38.6776493
   3.3371673  87.7375993  46.5576493   4.0241673  87.6235993  47.0826493
   3.4711673  88.5285993  46.2136493   3.4581673  87.8375993  46.5846493
  11.5131673  80.3465993  48.3686493  10.6581673  80.2245993  48.4946493
  11.6661673  79.9515993  47.6056493  11.4091673  80.2695993  48.2746493
   6.0261673  81.0115993  46.9446493   5.7711673  80.2925993  47.3666493
   6.8471673  81.1275993  47.2146493   6.1101673  80.9225993  47.0466493
   3.9601673  82.2015993  50.1316493   4.2831673  82.8875993  49.6996493
   3.2561673  82.5245993  50.5336493   3.9031673  82.3505993  50.1266493
   3.7451673  85.6655993  43.9906493   3.0511673  86.0675993  44.3336493
   4.4221673  86.0985993  44.3296493   3.7421673  85.7885993  44.0916493
   9.1221673  88.2585993  50.5706493   9.8981673  87.8685993  50.6536493
   8.6531673  87.9225993  51.2256493   9.1671673  88.1515993  50.6796493
  10.1471673  80.2915993  36.0526493  10.2501673  80.2335993  35.1886493
  10.8881673  79.9595993  36.3706493  10.2721673  80.2345993  35.9716493
   4.0671673  87.2565993  37.1596493   3.8621673  88.0895993  37.0006493
   3.2921673  86.8745993  37.2816493   3.9221673  87.3235993  37.1546493
   9.2491673  80.4375993  45.4086493   9.2471673  79.5745993  45.5326493
   9.3161673  80.7615993  46.2156493   9.2591673  80.3575993  45.5456493
   5.1281673  75.2375993  49.1906493   5.2201673  75.9495993  49.6846493
   4.4911673  74.7925993  49.5876493   5.0471673  75.2765993  49.3226493
   4.1221673  75.4275993  40.0446493   3.4221673  75.9455993  39.9886493
   4.1601673  75.0475993  39.2606493   4.0241673  75.4485993  39.9206493
   7.7201673  75.9435993  42.8446493   8.5751673  76.0425993  42.9896493
   7.3511673  76.4965993  43.4096493   7.7921673  76.0405993  42.9496493
   8.0241673  81.2235993  41.3356493   8.6901673  81.7645993  41.4956493
   7.6791673  81.5345993  40.5966493   8.0711673  81.3495993  41.2506493
  11.1951673  73.7815993  46.0006493  11.1431673  73.7375993  46.8706493
  11.8821673  73.2785993  45.8106493  11.2891673  73.7015993  46.1006493
   3.2801673  75.8945993  43.0456493   2.5431673  75.4405993  43.1586493
   3.8511673  75.4925993  43.5686493   3.2551673  75.7675993  43.1396493
   6.0121673  86.7425993  44.8336493   6.2181673  87.0435993  45.6256493
   5.9511673  87.4645993  44.3486493   6.0331673  86.8935993  44.8786493
  10.8241673  85.3815993  44.2916493  10.7921673  84.5195993  44.1566493
  10.1311673  85.6835993  43.8576493  10.7171673  85.2985993  44.2076493
   8.9291673  88.6415993  43.0886493   9.4561673  88.5585993  42.3976493
   8.5381673  87.8635993  43.1426493   8.9491673  88.5145993  42.9946493
   5.4431673  74.0855993  42.2966493   6.1131673  74.6295993  42.4236493
   4.9401673  74.5095993  41.7236493   5.4681673  74.2285993  42.2306493
   4.8021673  79.8935993  39.7896493   5.3531673  79.2865993  40.0896493
   4.3771673  80.1565993  40.5046493   4.8211673  79.8425993  39.9386493
   6.7721673  81.7245993  36.3516493   6.8401673  80.8745993  36.5326493
   5.9491673  81.8105993  36.0736493   6.6601673  81.6115993  36.3376493
  10.0461673  83.0975993  49.5026493  10.6801673  82.9275993  50.0766493
  10.4631673  83.5005993  48.8506493  10.2011673  83.1325993  49.4916493
   5.9261673  86.9445993  35.0916493   5.6751673  86.8165993  35.9176493
   5.6091673  86.2495993  34.6706493   5.8421673  86.8235993  35.1516493
  10.6711673  77.6615993  50.2406493  10.4751673  78.3055993  50.7956493
   9.9491673  77.1715993  50.2326493  10.5361673  77.6845993  50.3216493
  10.5701673  78.6025993  43.2116493   9.7371673  78.8525993  43.1396493
  10.5141673  77.7625993  43.4406493  10.4391673  78.5155993  43.2346493
   7.4571673  83.2085993  50.8576493   8.3281673  83.1725993  50.8216493
   7.2381673  83.6285993  50.1256493   7.5541673  83.2645993  50.7446493
   2.8121673  85.1525993  34.5216493   3.5291673  84.8055993  34.1656493
   2.7781673  85.9525993  34.1736493   2.9131673  85.2195993  34.4176493
   4.2211673  73.7935993  18.7604083   3.9761673  74.2815993  18.0804083
   5.0841673  73.7205993  18.6604083   4.3121673  73.8545993  18.6454083
   4.0301673  80.7095993  23.4314083   3.5061673  81.3055993  23.7944083
   4.4271673  80.3415993  24.1154083   4.0111673  80.7435993  23.5864083
  10.1741673  88.1505993  16.4024083  10.8751673  87.6315993  16.3984083
   9.5871673  87.7055993  15.9334083  10.1911673  88.0075993  16.3324083
   6.7011673  81.7765993  20.1074083   6.7811673  81.7805993  19.2384083
   6.1171673  81.1445993  20.2564083   6.6261673  81.6835993  20.0014083
   3.5151673  79.7665993  29.5274083   2.6671673  79.6675993  29.3494083
   3.5441673  80.5115993  29.9814083   3.3941673  79.8625993  29.5684083
   8.0731673  72.7265993  28.6414083   7.9151673  73.4955993  28.2594083
   7.3011673  72.5065993  28.9854083   7.9351673  72.8075993  28.6364083
   5.5351673  77.3675993  13.1554083   5.0851673  78.0485993  13.4624083
   5.6491673  76.8635993  13.8584083   5.4861673  77.3935993  13.3044083
  10.9291673  77.3405993  19.4504083  10.5831673  78.0185993  19.8764083
  10.2931673  76.7425993  19.4664083  10.7841673  77.3525993  19.5154083
   2.4581673  74.0565993  30.2984083   2.6361673  73.2475993  30.0234083
   2.3151673  74.4975993  29.5594083   2.4631673  74.0025993  30.1484083
   3.0521673  78.9825993  19.0714083   3.3391673  78.7505993  18.2814083
   3.7841673  79.0615993  19.5404083   3.2021673  78.9595993  19.0244083
   3.7741673  79.3215993  14.1924083   4.0551673  80.1095993  14.4414083
   2.9981673  79.4865993  13.8294083   3.7011673  79.4625993  14.1754083
  10.6041673  75.6635993  24.8194083  11.3611673  75.7355993  24.3914083
  10.6671673  74.8905993  25.2184083  10.7251673  75.5605993  24.8144083
   5.4951673  87.2955993  29.2584083   5.4611673  87.6775993  30.0424083
   6.3491673  87.2535993  29.0874083   5.6161673  87.3455993  29.3494083
   2.6331673  87.4925993  14.0084083   2.4521673  88.0375993  14.6654083
   3.3991673  87.7825993  13.7074083   2.7191673  87.6165993  14.0614083
   6.1401673  75.3885993  15.0624083   6.6801673  74.7065993  15.1384083
   6.2021673  75.7865993  15.8364083   6.2291673  75.3465993  15.1884083
   3.3981673  77.7645993  16.3764083   2.8901673  77.1025993  16.1224083
   3.4501673  78.2685993  15.6664083   3.3311673  77.7415993  16.2344083
   3.3981673  74.7055993  16.2674083   2.9431673  74.3035993  15.6414083
   4.1711673  74.8605993  15.8924083   3.4451673  74.6695993  16.1194083
   1.9961673  77.0725993  20.7894083   2.0701673  77.6405993  20.1314083
   2.1171673  77.5645993  21.4994083   2.0241673  77.2295993  20.7974083
   7.2211673  86.9075993  19.2014083   7.9221673  86.4255993  19.3904083
   6.5611673  86.3385993  19.2464083   7.2271673  86.7525993  19.2354083
   5.7881673  77.2425993  26.6774083   5.6931673  77.5615993  27.4834083
   5.1951673  76.6035993  26.6394083   5.6861673  77.1945993  26.7914083
   6.4871673  83.9615993  24.8824083   5.9731673  83.5495993  25.4534083
   6.3611673  84.8055993  25.0634083   6.3931673  84.0255993  24.9934083
   7.0441673  73.1865993  19.5134083   7.0931673  72.8685993  20.3244083
   7.3671673  72.5425993  19.0204083   7.0991673  73.0445993  19.5604083
   9.5081673  77.4225993  27.8214083  10.2801673  77.1975993  28.1584083
   9.0331673  77.6395993  28.5214083   9.5521673  77.4215993  27.9744083
   9.7401673  84.4005993  15.0094083   9.8591673  84.1135993  15.8244083
  10.5471673  84.4215993  14.6794083   9.8761673  84.3615993  15.0814083
   7.6351673  80.9375993  14.5944083   7.4151673  81.6685993  14.1724083
   7.1871673  80.9885993  15.3414083   7.5361673  81.0525993  14.6424083
  11.8221673  75.7985993  14.0474083  11.1601673  75.2305993  14.0704083
  11.6291673  76.3105993  13.3674083  11.6961673  75.7905993  13.9504083
  12.1451673  80.1765993  26.6034083  12.3601673  79.3765993  26.3274083
  11.2951673  80.2365993  26.4144083  12.0511673  80.0675993  26.5344083
   9.8241673  75.3565993  16.3264083  10.5701673  74.9495993  16.5254083
  10.0871673  76.0715993  15.9014083   9.9731673  75.4025993  16.2934083
   3.7671673  87.8425993  20.9024083   3.2441673  88.4765993  20.6094083
   4.0771673  87.4785993  20.1734083   3.7351673  87.8825993  20.7514083
   6.2781673  77.6445993  21.3994083   6.6221673  77.7965993  22.1864083
   5.8251673  76.9065993  21.5124083   6.2621673  77.5575993  21.5324083
   7.5991673  78.9765993  23.9534083   6.9371673  79.3045993  24.4164083
   7.7861673  79.6105993  23.3844083   7.5291673  79.1185993  23.9374083
   4.2441673  74.8825993  27.3824083   4.3931673  74.0575993  27.1394083
   4.6231673  74.9375993  28.1664083   4.3221673  74.7685993  27.4624083
   5.7921673  76.9455993  17.4644083   6.2821673  77.6625993  17.3874083
   5.0021673  77.2065993  17.2014083   5.7481673  77.0895993  17.4144083
   7.1061673  84.8235993  29.3744083   7.5901673  85.5415993  29.4724083
   7.5001673  84.3965993  28.7234083   7.2361673  84.8665993  29.2924083
   2.3741673  78.4155993  23.1894083   2.8541673  79.1145993  23.3974083
   2.7471673  77.7685993  23.6404083   2.5001673  78.4235993  23.2864083
   4.5631673  81.5845993  15.4634083   4.5551673  82.3065993  14.9734083
   3.9241673  81.7195993  16.0404083   4.4681673  81.7115993  15.4764083
   9.5351673  85.4545993  19.4444083   9.8911673  85.1045993  20.1594083
   9.5271673  84.7935993  18.8744083   9.5871673  85.3045993  19.4654083
   5.5801673  88.5205993  23.2884083   4.9771673  88.2245993  22.7314083
   6.1251673  88.9725993  22.7794083   5.5711673  88.5435993  23.1304083
   5.5931673  85.3715993  22.6884083   4.7961673  85.5955993  22.9624083
   5.8511673  84.7775993  23.2734083   5.5131673  85.3165993  22.8154083
   8.8531673  83.3695993  27.5344083   8.9081673  83.4945993  26.6724083
   9.6061673  83.6895993  27.8364083   8.9721673  83.4345993  27.4514083
   9.8851673  73.6675993  30.5214083   9.2481673  73.2675993  30.0794083
   9.9111673  73.2365993  31.2794083   9.7951673  73.5455993  30.5674083
   4.5841673  83.1755993  27.1344083   4.4291673  83.7855993  27.7384083
   5.1181673  82.6175993  27.5404083   4.6401673  83.1835993  27.2834083
   2.9681673  81.5755993  17.7924083   3.0271673  82.2255993  18.3714083
   2.7791673  80.8795993  18.2834083   2.9491673  81.5685993  17.9504083
   8.1941673  85.9045993  23.6614083   7.7151673  86.2025993  22.9954083
   7.8381673  85.1285993  23.8394083   8.0711673  85.8335993  23.5894083
   9.1251673  82.8465993  24.7804083   9.1181673  82.0705993  25.1784083
   8.2841673  83.0805993  24.7734083   9.0001673  82.7665993  24.8384083
  10.3811673  82.9175993  22.2174083  10.0951673  83.3185993  22.9374083
  11.2411673  82.8555993  22.3444083  10.4661673  82.9675993  22.3424083
   8.0431673  76.8415993  30.7574083   7.5181673  77.3005993  31.2814083
   7.6821673  76.0465993  30.7514083   7.9121673  76.7915993  30.8334083
  11.5121673  88.5505993  22.7464083  11.8021673  88.8075993  21.9654083
  12.2071673  88.6465993  23.2654083  11.6581673  88.6025993  22.7074083
   6.5351673  80.4105993  30.8334083   6.6081673  80.5145993  31.6964083
   5.9011673  80.9685993  30.6124083   6.4521673  80.5085993  30.9284083
   8.8031673  80.7295993  29.1984083   9.1221673  81.5155993  29.4014083
   8.4331673  80.4595993  29.9414083   8.7961673  80.8055993  29.3384083
   8.1171673  87.1535993  14.7284083   8.4511673  86.3475993  14.7634083
   7.3621673  87.0815993  15.1584083   8.0551673  87.0235993  14.7974083
   8.5991673  78.9875993  20.3874083   7.8541673  78.6645993  20.7054083
   8.6011673  79.8135993  20.6674083   8.4891673  79.0615993  20.4754083
  11.5011673  81.2715993  31.9334083  11.4491673  80.9305993  31.1324083
  12.2381673  81.7385993  31.9114083  11.6021673  81.2905993  31.8114083
  11.0391673  84.9475993  28.1394083  11.6671673  84.3985993  27.8834083
  10.9781673  85.5125993  27.4774083  11.1231673  84.9505993  28.0034083
   5.4911673  85.0285993  14.1314083   6.1751673  84.5145993  13.9624083
   5.0741673  85.0745993  13.3664083   5.5301673  84.9595993  13.9934083
   7.5111673  75.3175993  27.8484083   8.2551673  75.7695993  27.7854083
   6.9451673  75.7875993  27.3794083   7.5381673  75.4545993  27.7704083
   2.6891673  82.6015993  24.9264083   3.1651673  82.9755993  25.5544083
   1.8661673  82.7355993  25.1854083   2.6381673  82.6765993  25.0574083
   8.7961673  73.2975993  25.5184083   8.5161673  74.1225993  25.4744083
   9.5121673  73.3505993  26.0144083   8.8611673  73.4275993  25.5854083
   4.4451673  84.8565993  30.5324083   5.2021673  85.1425993  30.2064083
   3.8981673  84.9085993  29.8544083   4.4761673  84.9065993  30.3834083
   8.3541673  87.4065993  29.0364083   8.7001673  87.6765993  29.7904083
   8.6481673  87.9885993  28.4564083   8.4491673  87.5325993  29.0624083
  10.2171673  79.5525993  14.3754083  10.5951673  80.2295993  13.9754083
   9.3751673  79.7765993  14.4064083  10.1481673  79.6855993  14.3204083
   5.6761673  78.1675993  29.2004083   5.0281673  78.6375993  29.5484083
   6.2411673  78.0785993  29.8594083   5.6641673  78.2235993  29.3494083
   5.3641673  79.7045993  25.4984083   5.6661673  80.1245993  26.2014083
   5.4001673  78.8645993  25.7304083   5.4141673  79.6425993  25.6364083
   7.9121673  79.1515993  17.7504083   8.1191673  78.9505993  18.5744083
   8.6681673  79.4195993  17.4084083   8.0541673  79.1615993  17.8214083
   8.9341673  75.2345993  19.2244083   8.2201673  74.7635993  19.3954083
   8.7721673  75.5755993  18.4384083   8.8051673  75.2155993  19.1334083
   9.3771673  83.1785993  17.6044083   9.8531673  82.4495993  17.5564083
   8.5561673  82.8925993  17.5284083   9.3261673  83.0285993  17.5854083
   2.8481673  85.0905993  28.4434083   2.0531673  85.0265993  28.7944083
   2.9191673  85.9375993  28.2484083   2.7411673  85.2055993  28.4664083
   5.5931673  84.3455993  19.9594083   5.6691673  84.6865993  20.7584083
   5.7621673  83.4985993  20.0804083   5.6291673  84.2705993  20.0954083
   3.1151673  83.6195993  19.5244083   2.8171673  83.3045993  20.2814083
   3.8101673  84.0925993  19.7594083   3.1741673  83.6425993  19.6714083
   3.3371673  87.7375993  27.5514083   4.0241673  87.6235993  28.0764083
   3.4711673  88.5285993  27.2074083   3.4581673  87.8375993  27.5784083
  11.5131673  80.3465993  29.3624083  10.6581673  80.2245993  29.4884083
  11.6661673  79.9515993  28.5994083  11.4091673  80.2695993  29.2684083
   6.0261673  81.0115993  27.9384083   5.7711673  80.2925993  28.3604083
   6.8471673  81.1275993  28.2084083   6.1101673  80.9225993  28.0404083
   3.9601673  82.2015993  31.1254083   4.2831673  82.8875993  30.6934083
   3.2561673  82.5245993  31.5274083   3.9031673  82.3505993  31.1204083
   3.7451673  85.6655993  24.9844083   3.0511673  86.0675993  25.3274083
   4.4221673  86.0985993  25.3234083   3.7421673  85.7885993  25.0854083
   9.1221673  88.2585993  31.5644083   9.8981673  87.8685993  31.6474083
   8.6531673  87.9225993  32.2194083   9.1671673  88.1515993  31.6734083
  10.1471673  80.2915993  17.0464083  10.2501673  80.2335993  16.1824083
  10.8881673  79.9595993  17.3644083  10.2721673  80.2345993  16.9654083
   4.0671673  87.2565993  18.1534083   3.8621673  88.0895993  17.9944083
   3.2921673  86.8745993  18.2754083   3.9221673  87.3235993  18.1484083
   9.2491673  80.4375993  26.4024083   9.2471673  79.5745993  26.5264083
   9.3161673  80.7615993  27.2094083   9.2591673  80.3575993  26.5394083
   5.1281673  75.2375993  30.1844083   5.2201673  75.9495993  30.6784083
   4.4911673  74.7925993  30.5814083   5.0471673  75.2765993  30.3164083
   4.1221673  75.4275993  21.0384083   3.4221673  75.9455993  20.9824083
   4.1601673  75.0475993  20.2544083   4.0241673  75.4485993  20.9144083
   7.7201673  75.9435993  23.8384083   8.5751673  76.0425993  23.9834083
   7.3511673  76.4965993  24.4034083   7.7921673  76.0405993  23.9434083
   8.0241673  81.2235993  22.3294083   8.6901673  81.7645993  22.4894083
   7.6791673  81.5345993  21.5904083   8.0711673  81.3495993  22.2444083
  11.1951673  73.7815993  26.9944083  11.1431673  73.7375993  27.8644083
  11.8821673  73.2785993  26.8044083  11.2891673  73.7015993  27.0944083
   3.2801673  75.8945993  24.0394083   2.5431673  75.4405993  24.1524083
   3.8511673  75.4925993  24.5624083   3.2551673  75.7675993  24.1334083
   6.0121673  86.7425993  25.8274083   6.2181673  87.0435993  26.6194083
   5.9511673  87.4645993  25.3424083   6.0331673  86.8935993  25.8724083
  10.8241673  85.3815993  25.2854083  10.7921673  84.5195993  25.1504083
  10.1311673  85.6835993  24.8514083  10.7171673  85.2985993  25.2014083
   8.9291673  88.6415993  24.0824083   9.4561673  88.5585993  23.3914083
   8.5381673  87.8635993  24.1364083   8.9491673  88.5145993  23.9884083
   5.4431673  74.0855993  23.2904083   6.1131673  74.6295993  23.4174083
   4.9401673  74.5095993  22.7174083   5.4681673  74.2285993  23.2244083
   4.8021673  79.8935993  20.7834083   5.3531673  79.2865993  21.0834083
   4.3771673  80.1565993  21.4984083   4.8211673  79.8425993  20.9324083
   6.7721673  81.7245993  17.3454083   6.8401673  80.8745993  17.5264083
   5.9491673  81.8105993  17.0674083   6.6601673  81.6115993  17.3314083
  10.0461673  83.0975993  30.4964083  10.6801673  82.9275993  31.0704083
  10.4631673  83.5005993  29.8444083  10.2011673  83.1325993  30.4854083
   5.9261673  86.9445993  16.0854083   5.6751673  86.8165993  16.9114083
   5.6091673  86.2495993  15.6644083   5.8421673  86.8235993  16.1454083
  10.6711673  77.6615993  31.2344083  10.4751673  78.3055993  31.7894083
   9.9491673  77.1715993  31.2264083  10.5361673  77.6845993  31.3154083
  10.5701673  78.6025993  24.2054083   9.7371673  78.8525993  24.1334083
  10.5141673  77.7625993  24.4344083  10.4391673  78.5155993  24.2284083
   7.4571673  83.2085993  31.8514083   8.3281673  83.1725993  31.8154083
   7.2381673  83.6285993  31.1194083   7.5541673  83.2645993  31.7384083
   2.8121673  85.1525993  15.5154083   3.5291673  84.8055993  15.1594083
   2.7781673  85.9525993  15.1674083   2.9131673  85.2195993  15.4114083
   4.0301673  80.7095993   4.4251673   3.5061673  81.3055993   4.7881673
   4.4271673  80.3415993   5.1091673   4.0111673  80.7435993   4.5801673
   3.5151673  79.7665993  10.5211673   2.6671673  79.6675993  10.3431673
   3.5441673  80.5115993  10.9751673   3.3941673  79.8625993  10.5621673
   8.0731673  72.7265993   9.6351673   7.9151673  73.4955993   9.2531673
   7.3011673  72.5065993   9.9791673   7.9351673  72.8075993   9.6301673
   2.4581673  74.0565993  11.2921673   2.6361673  73.2475993  11.0171673
   2.3151673  74.4975993  10.5531673   2.4631673  74.0025993  11.1421673
  10.6041673  75.6635993   5.8131673  11.3611673  75.7355993   5.3851673
  10.6671673  74.8905993   6.2121673  10.7251673  75.5605993   5.8081673
   5.4951673  87.2955993  10.2521673   5.4611673  87.6775993  11.0361673
   6.3491673  87.2535993  10.0811673   5.6161673  87.3455993  10.3431673
   5.7881673  77.2425993   7.6711673   5.6931673  77.5615993   8.4771673
   5.1951673  76.6035993   7.6331673   5.6861673  77.1945993   7.7851673
   6.4871673  83.9615993   5.8761673   5.9731673  83.5495993   6.4471673
   6.3611673  84.8055993   6.0571673   6.3931673  84.0255993   5.9871673
   9.5081673  77.4225993   8.8151673  10.2801673  77.1975993   9.1521673
   9.0331673  77.6395993   9.5151673   9.5521673  77.4215993   8.9681673
  12.1451673  80.1765993   7.5971673  12.3601673  79.3765993   7.3211673
  11.2951673  80.2365993   7.4081673  12.0511673  80.0675993   7.5281673
   6.2781673  77.6445993   2.3931673   6.6221673  77.7965993   3.1801673
   5.8251673  76.9065993   2.5061673   6.2621673  77.5575993   2.5261673
   7.5991673  78.9765993   4.9471673   6.9371673  79.3045993   5.4101673
   7.7861673  79.6105993   4.3781673   7.5291673  79.1185993   4.9311673
   4.2441673  74.8825993   8.3761673   4.3931673  74.0575993   8.1331673
   4.6231673  74.9375993   9.1601673   4.3221673  74.7685993   8.4561673
   7.1061673  84.8235993  10.3681673   7.5901673  85.5415993  10.4661673
   7.5001673  84.3965993   9.7171673   7.2361673  84.8665993  10.2861673
   2.3741673  78.4155993   4.1831673   2.8541673  79.1145993   4.3911673
   2.7471673  77.7685993   4.6341673   2.5001673  78.4235993   4.2801673
   5.5801673  88.5205993   4.2821673   4.9771673  88.2245993   3.7251673
   6.1251673  88.9725993   3.7731673   5.5711673  88.5435993   4.1241673
   5.5931673  85.3715993   3.6821673   4.7961673  85.5955993   3.9561673
   5.8511673  84.7775993   4.2671673   5.5131673  85.3165993   3.8091673
   8.8531673  83.3695993   8.5281673   8.9081673  83.4945993   7.6661673
   9.6061673  83.6895993   8.8301673   8.9721673  83.4345993   8.4451673
   9.8851673  73.6675993  11.5151673   9.2481673  73.2675993  11.0731673
   9.9111673  73.2365993  12.2731673   9.7951673  73.5455993  11.5611673
   4.5841673  83.1755993   8.1281673   4.4291673  83.7855993   8.7321673
   5.1181673  82.6175993   8.5341673   4.6401673  83.1835993   8.2771673
   8.1941673  85.9045993   4.6551673   7.7151673  86.2025993   3.9891673
   7.8381673  85.1285993   4.8331673   8.0711673  85.8335993   4.5831673
   9.1251673  82.8465993   5.7741673   9.1181673  82.0705993   6.1721673
   8.2841673  83.0805993   5.7671673   9.0001673  82.7665993   5.8321673
  10.3811673  82.9175993   3.2111673  10.0951673  83.3185993   3.9311673
  11.2411673  82.8555993   3.3381673  10.4661673  82.9675993   3.3361673
   8.0431673  76.8415993  11.7511673   7.5181673  77.3005993  12.2751673
   7.6821673  76.0465993  11.7451673   7.9121673  76.7915993  11.8271673
  11.5121673  88.5505993   3.7401673  11.8021673  88.8075993   2.9591673
  12.2071673  88.6465993   4.2591673  11.6581673  88.6025993   3.7011673
   6.5351673  80.4105993  11.8271673   6.6081673  80.5145993  12.6901673
   5.9011673  80.9685993  11.6061673   6.4521673  80.5085993  11.9221673
   8.8031673  80.7295993  10.1921673   9.1221673  81.5155993  10.3951673
   8.4331673  80.4595993  10.9351673   8.7961673  80.8055993  10.3321673
  11.5011673  81.2715993  12.9271673  11.4491673  80.9305993  12.1261673
  12.2381673  81.7385993  12.9051673  11.6021673  81.2905993  12.8051673
  11.0391673  84.9475993   9.1331673  11.6671673  84.3985993   8.8771673
  10.9781673  85.5125993   8.4711673  11.1231673  84.9505993   8.9971673
   7.5111673  75.3175993   8.8421673   8.2551673  75.7695993   8.7791673
   6.9451673  75.7875993   8.3731673   7.5381673  75.4545993   8.7641673
   2.6891673  82.6015993   5.9201673   3.1651673  82.9755993   6.5481673
   1.8661673  82.7355993   6.1791673   2.6381673  82.6765993   6.0511673
   8.7961673  73.2975993   6.5121673   8.5161673  74.1225993   6.4681673
   9.5121673  73.3505993   7.0081673   8.8611673  73.4275993   6.5791673
   4.4451673  84.8565993  11.5261673   5.2021673  85.1425993  11.2001673
   3.8981673  84.9085993  10.8481673   4.4761673  84.9065993  11.3771673
   8.3541673  87.4065993  10.0301673   8.7001673  87.6765993  10.7841673
   8.6481673  87.9885993   9.4501673   8.4491673  87.5325993  10.0561673
   5.6761673  78.1675993  10.1941673   5.0281673  78.6375993  10.5421673
   6.2411673  78.0785993  10.8531673   5.6641673  78.2235993  10.3431673
   5.3641673  79.7045993   6.4921673   5.6661673  80.1245993   7.1951673
   5.4001673  78.8645993   6.7241673   5.4141673  79.6425993   6.6301673
   2.8481673  85.0905993   9.4371673   2.0531673  85.0265993   9.7881673
   2.9191673  85.9375993   9.2421673   2.7411673  85.2055993   9.4601673
   3.3371673  87.7375993   8.5451673   4.0241673  87.6235993   9.0701673
   3.4711673  88.5285993   8.2011673   3.4581673  87.8375993   8.5721673
  11.5131673  80.3465993  10.3561673  10.6581673  80.2245993  10.4821673
  11.6661673  79.9515993   9.5931673  11.4091673  80.2695993  10.2621673
   6.0261673  81.0115993   8.9321673   5.7711673  80.2925993   9.3541673
   6.8471673  81.1275993   9.2021673   6.1101673  80.9225993   9.0341673
   3.9601673  82.2015993  12.1191673   4.2831673  82.8875993  11.6871673
   3.2561673  82.5245993  12.5211673   3.9031673  82.3505993  12.1141673
   3.7451673  85.6655993   5.9781673   3.0511673  86.0675993   6.3211673
   4.4221673  86.0985993   6.3171673   3.7421673  85.7885993   6.0791673
   9.1221673  88.2585993  12.5581673   9.8981673  87.8685993  12.6411673
   8.6531673  87.9225993  13.2131673   9.1671673  88.1515993  12.6671673
   9.2491673  80.4375993   7.3961673   9.2471673  79.5745993   7.5201673
   9.3161673  80.7615993   8.2031673   9.2591673  80.3575993   7.5331673
   5.1281673  75.2375993  11.1781673   5.2201673  75.9495993  11.6721673
   4.4911673  74.7925993  11.5751673   5.0471673  75.2765993  11.3101673
   7.7201673  75.9435993   4.8321673   8.5751673  76.0425993   4.9771673
   7.3511673  76.4965993   5.3971673   7.7921673  76.0405993   4.9371673
   8.0241673  81.2235993   3.3231673   8.6901673  81.7645993   3.4831673
   7.6791673  81.5345993   2.5841673   8.0711673  81.3495993   3.2381673
  11.1951673  73.7815993   7.9881673  11.1431673  73.7375993   8.8581673
  11.8821673  73.2785993   7.7981673  11.2891673  73.7015993   8.0881673
   3.2801673  75.8945993   5.0331673   2.5431673  75.4405993   5.1461673
   3.8511673  75.4925993   5.5561673   3.2551673  75.7675993   5.1271673
   6.0121673  86.7425993   6.8211673   6.2181673  87.0435993   7.6131673
   5.9511673  87.4645993   6.3361673   6.0331673  86.8935993   6.8661673
  10.8241673  85.3815993   6.2791673  10.7921673  84.5195993   6.1441673
  10.1311673  85.6835993   5.8451673  10.7171673  85.2985993   6.1951673
   8.9291673  88.6415993   5.0761673   9.4561673  88.5585993   4.3851673
   8.5381673  87.8635993   5.1301673   8.9491673  88.5145993   4.9821673
   5.4431673  74.0855993   4.2841673   6.1131673  74.6295993   4.4111673
   4.9401673  74.5095993   3.7111673   5.4681673  74.2285993   4.2181673
   4.8021673  79.8935993   1.7771673   5.3531673  79.2865993   2.0771673
   4.3771673  80.1565993   2.4921673   4.8211673  79.8425993   1.9261673
  10.0461673  83.0975993  11.4901673  10.6801673  82.9275993  12.0641673
  10.4631673  83.5005993  10.8381673  10.2011673  83.1325993  11.4791673
  10.6711673  77.6615993  12.2281673  10.4751673  78.3055993  12.7831673
   9.9491673  77.1715993  12.2201673  10.5361673  77.6845993  12.3091673
  10.5701673  78.6025993   5.1991673   9.7371673  78.8525993   5.1271673
  10.5141673  77.7625993   5.4281673  10.4391673  78.5155993   5.2221673
   7.4571673  83.2085993  12.8451673   8.3281673  83.1725993  12.8091673
   7.2381673  83.6285993  12.1131673   7.5541673  83.2645993  12.7321673
   4.2211673  55.3154913  75.7791313   3.9761673  55.8034913  75.0991313
   5.0841673  55.2424913  75.6791313   4.3121673  55.3764913  75.6641313
   4.0301673  62.2314913  80.4501313   3.5061673  62.8274913  80.8131313
   4.4271673  61.8634913  81.1341313   4.0111673  62.2654913  80.6051313
  10.1741673  69.6724913  73.4211313  10.8751673  69.1534913  73.4171313
   9.5871673  69.2274913  72.9521313  10.1911673  69.5294913  73.3511313
   6.7011673  63.2984913  77.1261313   6.7811673  63.3024913  76.2571313
   6.1171673  62.6664913  77.2751313   6.6261673  63.2054913  77.0201313
   5.5351673  58.8894913  70.1741313   5.0851673  59.5704913  70.4811313
   5.6491673  58.3854913  70.8771313   5.4861673  58.9154913  70.3231313
   5.6341673  71.2304913  72.2781313   6.3611673  71.7024913  72.3801313
   5.8631673  70.4364913  72.5581313   5.7761673  71.1834913  72.3351313
   3.8021673  71.6224913  74.2681313   4.0161673  72.1494913  74.9301313
   4.5691673  71.4484913  73.8891313   3.9471673  71.6744913  74.3101313
  10.9291673  58.8624913  76.4691313  10.5831673  59.5404913  76.8951313
  10.2931673  58.2644913  76.4851313  10.7841673  58.8744913  76.5341313
   3.0521673  60.5044913  76.0901313   3.3391673  60.2724913  75.3001313
   3.7841673  60.5834913  76.5591313   3.2021673  60.4814913  76.0431313
   3.7741673  60.8434913  71.2111313   4.0551673  61.6314913  71.4601313
   2.9981673  61.0084913  70.8481313   3.7011673  60.9844913  71.1941313
   7.8151673  72.8174913  72.6781313   8.4801673  72.6694913  72.1331313
   8.1751673  72.7344913  73.4681313   7.9671673  72.7834913  72.7141313
   2.6331673  69.0144913  71.0271313   2.4521673  69.5594913  71.6841313
   3.3991673  69.3044913  70.7261313   2.7191673  69.1384913  71.0801313
   6.1401673  56.9104913  72.0811313   6.6801673  56.2284913  72.1571313
   6.2021673  57.3084913  72.8551313   6.2291673  56.8684913  72.2071313
   3.3981673  59.2864913  73.3951313   2.8901673  58.6244913  73.1411313
   3.4501673  59.7904913  72.6851313   3.3311673  59.2634913  73.2531313
   3.3981673  56.2274913  73.2861313   2.9431673  55.8254913  72.6601313
   4.1711673  56.3824913  72.9111313   3.4451673  56.1914913  73.1381313
  10.2241673  72.5844913  76.6761313   9.7691673  73.3014913  76.8771313
   9.6101673  72.0134913  76.4341313  10.0661673  72.6064913  76.6701313
   1.9961673  58.5944913  77.8081313   2.0701673  59.1624913  77.1501313
   2.1171673  59.0864913  78.5181313   2.0241673  58.7514913  77.8161313
   7.2211673  68.4294913  76.2201313   7.9221673  67.9474913  76.4091313
   6.5611673  67.8604913  76.2651313   7.2271673  68.2744913  76.2541313
   7.0441673  54.7084913  76.5321313   7.0931673  54.3904913  77.3431313
   7.3671673  54.0644913  76.0391313   7.0991673  54.5664913  76.5791313
   9.7401673  65.9224913  72.0281313   9.8591673  65.6354913  72.8431313
  10.5471673  65.9434913  71.6981313   9.8761673  65.8834913  72.1001313
   7.6351673  62.4594913  71.6131313   7.4151673  63.1904913  71.1911313
   7.1871673  62.5104913  72.3601313   7.5361673  62.5744913  71.6611313
  11.8221673  57.3204913  71.0661313  11.1601673  56.7524913  71.0891313
  11.6291673  57.8324913  70.3861313  11.6961673  57.3124913  70.9691313
   9.8241673  56.8784913  73.3451313  10.5701673  56.4714913  73.5441313
  10.0871673  57.5934913  72.9201313   9.9731673  56.9244913  73.3121313
   3.7671673  69.3644913  77.9211313   3.2441673  69.9984913  77.6281313
   4.0771673  69.0004913  77.1921313   3.7351673  69.4044913  77.7701313
   6.2781673  59.1664913  78.4181313   6.6221673  59.3184913  79.2051313
   5.8251673  58.4284913  78.5311313   6.2621673  59.0794913  78.5511313
   7.5991673  60.4984913  80.9721313   6.9371673  60.8264913  81.4351313
   7.7861673  61.1324913  80.4031313   7.5291673  60.6404913  80.9561313
   5.7921673  58.4674913  74.4831313   6.2821673  59.1844913  74.4061313
   5.0021673  58.7284913  74.2201313   5.7481673  58.6114913  74.4331313
   2.3741673  59.9374913  80.2081313   2.8541673  60.6364913  80.4161313
   2.7471673  59.2904913  80.6591313   2.5001673  59.9454913  80.3051313
   4.5631673  63.1064913  72.4821313   4.5551673  63.8284913  71.9921313
   3.9241673  63.2414913  73.0591313   4.4681673  63.2334913  72.4951313
   9.5351673  66.9764913  76.4631313   9.8911673  66.6264913  77.1781313
   9.5271673  66.3154913  75.8931313   9.5871673  66.8264913  76.4841313
   5.5801673  70.0424913  80.3071313   4.9771673  69.7464913  79.7501313
   6.1251673  70.4944913  79.7981313   5.5711673  70.0654913  80.1491313
   5.5931673  66.8934913  79.7071313   4.7961673  67.1174913  79.9811313
   5.8511673  66.2994913  80.2921313   5.5131673  66.8384913  79.8341313
   1.7771673  71.2214913  72.5571313   2.3991673  71.3844913  73.1471313
   1.8131673  71.9124913  72.0251313   1.8741673  71.3474913  72.5661313
   2.9681673  63.0974913  74.8111313   3.0271673  63.7474913  75.3901313
   2.7791673  62.4014913  75.3021313   2.9491673  63.0904913  74.9691313
   8.1941673  67.4264913  80.6801313   7.7151673  67.7244913  80.0141313
   7.8381673  66.6504913  80.8581313   8.0711673  67.3554913  80.6081313
  11.8861673  71.5924913  72.6201313  12.5801673  71.1254913  72.3721313
  11.3471673  70.9944913  72.9571313  11.9091673  71.4344913  72.6331313
  10.3811673  64.4394913  79.2361313  10.0951673  64.8404913  79.9561313
  11.2411673  64.3774913  79.3631313  10.4661673  64.4894913  79.3611313
  11.5121673  70.0724913  79.7651313  11.8021673  70.3294913  78.9841313
  12.2071673  70.1684913  80.2841313  11.6581673  70.1244913  79.7261313
   8.1171673  68.6754913  71.7471313   8.4511673  67.8694913  71.7821313
   7.3621673  68.6034913  72.1771313   8.0551673  68.5454913  71.8161313
   8.5991673  60.5094913  77.4061313   7.8541673  60.1864913  77.7241313
   8.6011673  61.3354913  77.6861313   8.4891673  60.5834913  77.4941313
   5.4911673  66.5504913  71.1501313   6.1751673  66.0364913  70.9811313
   5.0741673  66.5964913  70.3851313   5.5301673  66.4814913  71.0121313
  10.2171673  61.0744913  71.3941313  10.5951673  61.7514913  70.9941313
   9.3751673  61.2984913  71.4251313  10.1481673  61.2074913  71.3391313
   7.9121673  60.6734913  74.7691313   8.1191673  60.4724913  75.5931313
   8.6681673  60.9414913  74.4271313   8.0541673  60.6834913  74.8401313
   8.9341673  56.7564913  76.2431313   8.2201673  56.2854913  76.4141313
   8.7721673  57.0974913  75.4571313   8.8051673  56.7374913  76.1521313
   9.3771673  64.7004913  74.6231313   9.8531673  63.9714913  74.5751313
   8.5561673  64.4144913  74.5471313   9.3261673  64.5504913  74.6041313
   5.5931673  65.8674913  76.9781313   5.6691673  66.2084913  77.7771313
   5.7621673  65.0204913  77.0991313   5.6291673  65.7924913  77.1141313
   3.1151673  65.1414913  76.5431313   2.8171673  64.8264913  77.3001313
   3.8101673  65.6144913  76.7781313   3.1741673  65.1644913  76.6901313
   7.0441673  72.0974913  79.0731313   6.5931673  72.7404913  79.4521313
   7.7521673  72.0184913  79.5781313   7.0821673  72.1804913  79.2041313
  10.1471673  61.8134913  74.0651313  10.2501673  61.7554913  73.2011313
  10.8881673  61.4814913  74.3831313  10.2721673  61.7564913  73.9841313
   4.0671673  68.7784913  75.1721313   3.8621673  69.6114913  75.0131313
   3.2921673  68.3964913  75.2941313   3.9221673  68.8454913  75.1671313
   4.1221673  56.9494913  78.0571313   3.4221673  57.4674913  78.0011313
   4.1601673  56.5694913  77.2731313   4.0241673  56.9704913  77.9331313
   7.7201673  57.4654913  80.8571313   8.5751673  57.5644913  81.0021313
   7.3511673  58.0184913  81.4221313   7.7921673  57.5624913  80.9621313
   8.0241673  62.7454913  79.3481313   8.6901673  63.2864913  79.5081313
   7.6791673  63.0564913  78.6091313   8.0711673  62.8714913  79.2631313
   8.3371673  70.8114913  75.1551313   8.1631673  70.1574913  75.7051313
   9.0501673  70.5404913  74.7321313   8.4171673  70.6744913  75.1741313
   3.2801673  57.4164913  81.0581313   2.5431673  56.9624913  81.1711313
   3.8511673  57.0144913  81.5811313   3.2551673  57.2894913  81.1521313
   8.9291673  70.1634913  81.1011313   9.4561673  70.0804913  80.4101313
   8.5381673  69.3854913  81.1551313   8.9491673  70.0364913  81.0071313
   5.4431673  55.6074913  80.3091313   6.1131673  56.1514913  80.4361313
   4.9401673  56.0314913  79.7361313   5.4681673  55.7504913  80.2431313
   4.8021673  61.4154913  77.8021313   5.3531673  60.8084913  78.1021313
   4.3771673  61.6784913  78.5171313   4.8211673  61.3644913  77.9511313
   6.7721673  63.2464913  74.3641313   6.8401673  62.3964913  74.5451313
   5.9491673  63.3324913  74.0861313   6.6601673  63.1334913  74.3501313
   9.8511673  72.2014913  70.7821313  10.4881673  72.0674913  71.3631313
   9.5101673  71.4074913  70.6651313   9.8951673  72.0644913  70.8501313
   5.9261673  68.4664913  73.1041313   5.6751673  68.3384913  73.9301313
   5.6091673  67.7714913  72.6831313   5.8421673  68.3454913  73.1641313
  10.5701673  60.1244913  81.2241313   9.7371673  60.3744913  81.1521313
  10.5141673  59.2844913  81.4531313  10.4391673  60.0374913  81.2471313
   2.8121673  66.6744913  72.5341313   3.5291673  66.3274913  72.1781313
   2.7781673  67.4744913  72.1861313   2.9131673  66.7414913  72.4301313
   4.2211673  55.3154913  56.7728903   3.9761673  55.8034913  56.0928903
   5.0841673  55.2424913  56.6728903   4.3121673  55.3764913  56.6578903
   4.0301673  62.2314913  61.4438903   3.5061673  62.8274913  61.8068903
   4.4271673  61.8634913  62.1278903   4.0111673  62.2654913  61.5988903
  10.1741673  69.6724913  54.4148903  10.8751673  69.1534913  54.4108903
   9.5871673  69.2274913  53.9458903  10.1911673  69.5294913  54.3448903
   6.7011673  63.2984913  58.1198903   6.7811673  63.3024913  57.2508903
   6.1171673  62.6664913  58.2688903   6.6261673  63.2054913  58.0138903
   3.5151673  61.2884913  67.5398903   2.6671673  61.1894913  67.3618903
   3.5441673  62.0334913  67.9938903   3.3941673  61.3844913  67.5808903
   8.0731673  54.2484913  66.6538903   7.9151673  55.0174913  66.2718903
   7.3011673  54.0284913  66.9978903   7.9351673  54.3294913  66.6488903
   5.5351673  58.8894913  51.1678903   5.0851673  59.5704913  51.4748903
   5.6491673  58.3854913  51.8708903   5.4861673  58.9154913  51.3168903
   5.6341673  71.2304913  53.2718903   6.3611673  71.7024913  53.3738903
   5.8631673  70.4364913  53.5518903   5.7761673  71.1834913  53.3288903
   3.8021673  71.6224913  55.2618903   4.0161673  72.1494913  55.9238903
   4.5691673  71.4484913  54.8828903   3.9471673  71.6744913  55.3038903
  10.9291673  58.8624913  57.4628903  10.5831673  59.5404913  57.8888903
  10.2931673  58.2644913  57.4788903  10.7841673  58.8744913  57.5278903
   6.2411673  71.6324913  63.5668903   6.9851673  72.0884913  63.5568903
   6.1201673  71.4184913  62.7298903   6.3331673  71.6684913  63.4418903
   2.4581673  55.5784913  68.3108903   2.6361673  54.7694913  68.0358903
   2.3151673  56.0194913  67.5718903   2.4631673  55.5244913  68.1608903
   3.0521673  60.5044913  57.0838903   3.3391673  60.2724913  56.2938903
   3.7841673  60.5834913  57.5528903   3.2021673  60.4814913  57.0368903
   3.7741673  60.8434913  52.2048903   4.0551673  61.6314913  52.4538903
   2.9981673  61.0084913  51.8418903   3.7011673  60.9844913  52.1878903
   7.8151673  72.8174913  53.6718903   8.4801673  72.6694913  53.1268903
   8.1751673  72.7344913  54.4618903   7.9671673  72.7834913  53.7078903
  10.6041673  57.1854913  62.8318903  11.3611673  57.2574913  62.4038903
  10.6671673  56.4124913  63.2308903  10.7251673  57.0824913  62.8268903
   5.4951673  68.8174913  67.2708903   5.4611673  69.1994913  68.0548903
   6.3491673  68.7754913  67.0998903   5.6161673  68.8674913  67.3618903
   2.6331673  69.0144913  52.0208903   2.4521673  69.5594913  52.6778903
   3.3991673  69.3044913  51.7198903   2.7191673  69.1384913  52.0738903
   6.1401673  56.9104913  53.0748903   6.6801673  56.2284913  53.1508903
   6.2021673  57.3084913  53.8488903   6.2291673  56.8684913  53.2008903
   3.3981673  59.2864913  54.3888903   2.8901673  58.6244913  54.1348903
   3.4501673  59.7904913  53.6788903   3.3311673  59.2634913  54.2468903
   3.9471673  71.9814913  64.7688903   4.7151673  71.9014913  64.3628903
   3.3641673  71.8604913  64.1308903   3.9741673  71.9514913  64.6148903
   3.3981673  56.2274913  54.2798903   2.9431673  55.8254913  53.6538903
   4.1711673  56.3824913  53.9048903   3.4451673  56.1914913  54.1318903
  10.2241673  72.5844913  57.6698903   9.7691673  73.3014913  57.8708903
   9.6101673  72.0134913  57.4278903  10.0661673  72.6064913  57.6638903
   1.9961673  58.5944913  58.8018903   2.0701673  59.1624913  58.1438903
   2.1171673  59.0864913  59.5118903   2.0241673  58.7514913  58.8098903
   7.2211673  68.4294913  57.2138903   7.9221673  67.9474913  57.4028903
   6.5611673  67.8604913  57.2588903   7.2271673  68.2744913  57.2478903
   5.7881673  58.7644913  64.6898903   5.6931673  59.0834913  65.4958903
   5.1951673  58.1254913  64.6518903   5.6861673  58.7164913  64.8038903
   6.4871673  65.4834913  62.8948903   5.9731673  65.0714913  63.4658903
   6.3611673  66.3274913  63.0758903   6.3931673  65.5474913  63.0058903
   7.0441673  54.7084913  57.5258903   7.0931673  54.3904913  58.3368903
   7.3671673  54.0644913  57.0328903   7.0991673  54.5664913  57.5728903
   9.5081673  58.9444913  65.8338903  10.2801673  58.7194913  66.1708903
   9.0331673  59.1614913  66.5338903   9.5521673  58.9434913  65.9868903
   9.7401673  65.9224913  53.0218903   9.8591673  65.6354913  53.8368903
  10.5471673  65.9434913  52.6918903   9.8761673  65.8834913  53.0938903
  11.9741673  70.4314913  67.2758903  11.2921673  70.7414913  66.8288903
  11.6051673  69.9734913  67.9208903  11.8181673  70.4094913  67.3048903
   7.6351673  62.4594913  52.6068903   7.4151673  63.1904913  52.1848903
   7.1871673  62.5104913  53.3538903   7.5361673  62.5744913  52.6548903
  11.8221673  57.3204913  52.0598903  11.1601673  56.7524913  52.0828903
  11.6291673  57.8324913  51.3798903  11.6961673  57.3124913  51.9628903
  12.1451673  61.6984913  64.6158903  12.3601673  60.8984913  64.3398903
  11.2951673  61.7584913  64.4268903  12.0511673  61.5894913  64.5468903
   9.8241673  56.8784913  54.3388903  10.5701673  56.4714913  54.5378903
  10.0871673  57.5934913  53.9138903   9.9731673  56.9244913  54.3058903
   3.7671673  69.3644913  58.9148903   3.2441673  69.9984913  58.6218903
   4.0771673  69.0004913  58.1858903   3.7351673  69.4044913  58.7638903
   6.2781673  59.1664913  59.4118903   6.6221673  59.3184913  60.1988903
   5.8251673  58.4284913  59.5248903   6.2621673  59.0794913  59.5448903
   9.8081673  70.8134913  65.3658903   9.1371673  71.3274913  65.5838903
   9.8711673  70.9134913  64.5018903   9.7181673  70.9044913  65.2708903
   7.5991673  60.4984913  61.9658903   6.9371673  60.8264913  62.4288903
   7.7861673  61.1324913  61.3968903   7.5291673  60.6404913  61.9498903
   4.2441673  56.4044913  65.3948903   4.3931673  55.5794913  65.1518903
   4.6231673  56.4594913  66.1788903   4.3221673  56.2904913  65.4748903
   5.7921673  58.4674913  55.4768903   6.2821673  59.1844913  55.3998903
   5.0021673  58.7284913  55.2138903   5.7481673  58.6114913  55.4268903
   7.1061673  66.3454913  67.3868903   7.5901673  67.0634913  67.4848903
   7.5001673  65.9184913  66.7358903   7.2361673  66.3884913  67.3048903
   2.3741673  59.9374913  61.2018903   2.8541673  60.6364913  61.4098903
   2.7471673  59.2904913  61.6528903   2.5001673  59.9454913  61.2988903
   4.5631673  63.1064913  53.4758903   4.5551673  63.8284913  52.9858903
   3.9241673  63.2414913  54.0528903   4.4681673  63.2334913  53.4888903
   9.5351673  66.9764913  57.4568903   9.8911673  66.6264913  58.1718903
   9.5271673  66.3154913  56.8868903   9.5871673  66.8264913  57.4778903
   5.5801673  70.0424913  61.3008903   4.9771673  69.7464913  60.7438903
   6.1251673  70.4944913  60.7918903   5.5711673  70.0654913  61.1428903
   5.5931673  66.8934913  60.7008903   4.7961673  67.1174913  60.9748903
   5.8511673  66.2994913  61.2858903   5.5131673  66.8384913  60.8278903
   1.7771673  71.2214913  53.5508903   2.3991673  71.3844913  54.1408903
   1.8131673  71.9124913  53.0188903   1.8741673  71.3474913  53.5598903
   8.8531673  64.8914913  65.5468903   8.9081673  65.0164913  64.6848903
   9.6061673  65.2114913  65.8488903   8.9721673  64.9564913  65.4638903
   5.0441673  70.2404913  69.8238903   5.2081673  70.5234913  70.6328903
   5.3071673  70.9014913  69.3188903   5.1071673  70.3804913  69.8688903
   9.8851673  55.1894913  68.5338903   9.2481673  54.7894913  68.0918903
   9.9111673  54.7584913  69.2918903   9.7951673  55.0674913  68.5798903
   4.5841673  64.6974913  65.1468903   4.4291673  65.3074913  65.7508903
   5.1181673  64.1394913  65.5528903   4.6401673  64.7054913  65.2958903
   2.9681673  63.0974913  55.8048903   3.0271673  63.7474913  56.3838903
   2.7791673  62.4014913  56.2958903   2.9491673  63.0904913  55.9628903
   8.1941673  67.4264913  61.6738903   7.7151673  67.7244913  61.0078903
   7.8381673  66.6504913  61.8518903   8.0711673  67.3554913  61.6018903
  11.8861673  71.5924913  53.6138903  12.5801673  71.1254913  53.3658903
  11.3471673  70.9944913  53.9508903  11.9091673  71.4344913  53.6268903
   9.1251673  64.3684913  62.7928903   9.1181673  63.5924913  63.1908903
   8.2841673  64.6024913  62.7858903   9.0001673  64.2884913  62.8508903
  10.3811673  64.4394913  60.2298903  10.0951673  64.8404913  60.9498903
  11.2411673  64.3774913  60.3568903  10.4661673  64.4894913  60.3548903
   8.0431673  58.3634913  68.7698903   7.5181673  58.8224913  69.2938903
   7.6821673  57.5684913  68.7638903   7.9121673  58.3134913  68.8458903
  11.5121673  70.0724913  60.7588903  11.8021673  70.3294913  59.9778903
  12.2071673  70.1684913  61.2778903  11.6581673  70.1244913  60.7198903
   6.5351673  61.9324913  68.8458903   6.6081673  62.0364913  69.7088903
   5.9011673  62.4904913  68.6248903   6.4521673  62.0304913  68.9408903
   8.8031673  62.2514913  67.2108903   9.1221673  63.0374913  67.4138903
   8.4331673  61.9814913  67.9538903   8.7961673  62.3274913  67.3508903
   8.1171673  68.6754913  52.7408903   8.4511673  67.8694913  52.7758903
   7.3621673  68.6034913  53.1708903   8.0551673  68.5454913  52.8098903
   8.5991673  60.5094913  58.3998903   7.8541673  60.1864913  58.7178903
   8.6011673  61.3354913  58.6798903   8.4891673  60.5834913  58.4878903
  11.5011673  62.7934913  69.9458903  11.4491673  62.4524913  69.1448903
  12.2381673  63.2604913  69.9238903  11.6021673  62.8124913  69.8238903
  11.0391673  66.4694913  66.1518903  11.6671673  65.9204913  65.8958903
  10.9781673  67.0344913  65.4898903  11.1231673  66.4724913  66.0158903
   5.4911673  66.5504913  52.1438903   6.1751673  66.0364913  51.9748903
   5.0741673  66.5964913  51.3788903   5.5301673  66.4814913  52.0058903
   7.5111673  56.8394913  65.8608903   8.2551673  57.2914913  65.7978903
   6.9451673  57.3094913  65.3918903   7.5381673  56.9764913  65.7828903
   2.6891673  64.1234913  62.9388903   3.1651673  64.4974913  63.5668903
   1.8661673  64.2574913  63.1978903   2.6381673  64.1984913  63.0698903
   8.7961673  54.8194913  63.5308903   8.5161673  55.6444913  63.4868903
   9.5121673  54.8724913  64.0268903   8.8611673  54.9494913  63.5978903
   4.4451673  66.3784913  68.5448903   5.2021673  66.6644913  68.2188903
   3.8981673  66.4304913  67.8668903   4.4761673  66.4284913  68.3958903
   8.3541673  68.9284913  67.0488903   8.7001673  69.1984913  67.8028903
   8.6481673  69.5104913  66.4688903   8.4491673  69.0544913  67.0748903
  10.2171673  61.0744913  52.3878903  10.5951673  61.7514913  51.9878903
   9.3751673  61.2984913  52.4188903  10.1481673  61.2074913  52.3328903
   5.6761673  59.6894913  67.2128903   5.0281673  60.1594913  67.5608903
   6.2411673  59.6004913  67.8718903   5.6641673  59.7454913  67.3618903
   5.3641673  61.2264913  63.5108903   5.6661673  61.6464913  64.2138903
   5.4001673  60.3864913  63.7428903   5.4141673  61.1644913  63.6488903
   2.7891673  71.3934913  67.4358903   3.2671673  70.7934913  67.0198903
   2.4381673  70.9504913  68.1008903   2.8081673  71.2394913  67.4728903
   7.9121673  60.6734913  55.7628903   8.1191673  60.4724913  56.5868903
   8.6681673  60.9414913  55.4208903   8.0541673  60.6834913  55.8338903
   8.9341673  56.7564913  57.2368903   8.2201673  56.2854913  57.4078903
   8.7721673  57.0974913  56.4508903   8.8051673  56.7374913  57.1458903
   9.3771673  64.7004913  55.6168903   9.8531673  63.9714913  55.5688903
   8.5561673  64.4144913  55.5408903   9.3261673  64.5504913  55.5978903
   2.8481673  66.6124913  66.4558903   2.0531673  66.5484913  66.8068903
   2.9191673  67.4594913  66.2608903   2.7411673  66.7274913  66.4788903
   5.5931673  65.8674913  57.9718903   5.6691673  66.2084913  58.7708903
   5.7621673  65.0204913  58.0928903   5.6291673  65.7924913  58.1078903
   3.1151673  65.1414913  57.5368903   2.8171673  64.8264913  58.2938903
   3.8101673  65.6144913  57.7718903   3.1741673  65.1644913  57.6838903
   3.3371673  69.2594913  65.5638903   4.0241673  69.1454913  66.0888903
   3.4711673  70.0504913  65.2198903   3.4581673  69.3594913  65.5908903
  11.5131673  61.8684913  67.3748903  10.6581673  61.7464913  67.5008903
  11.6661673  61.4734913  66.6118903  11.4091673  61.7914913  67.2808903
   6.0261673  62.5334913  65.9508903   5.7711673  61.8144913  66.3728903
   6.8471673  62.6494913  66.2208903   6.1101673  62.4444913  66.0528903
   3.9601673  63.7234913  69.1378903   4.2831673  64.4094913  68.7058903
   3.2561673  64.0464913  69.5398903   3.9031673  63.8724913  69.1328903
   7.0441673  72.0974913  60.0668903   6.5931673  72.7404913  60.4458903
   7.7521673  72.0184913  60.5718903   7.0821673  72.1804913  60.1978903
   3.7451673  67.1874913  62.9968903   3.0511673  67.5894913  63.3398903
   4.4221673  67.6204913  63.3358903   3.7421673  67.3104913  63.0978903
   9.1221673  69.7804913  69.5768903   9.8981673  69.3904913  69.6598903
   8.6531673  69.4444913  70.2318903   9.1671673  69.6734913  69.6858903
  10.1471673  61.8134913  55.0588903  10.2501673  61.7554913  54.1948903
  10.8881673  61.4814913  55.3768903  10.2721673  61.7564913  54.9778903
   4.0671673  68.7784913  56.1658903   3.8621673  69.6114913  56.0068903
   3.2921673  68.3964913  56.2878903   3.9221673  68.8454913  56.1608903
   9.2491673  61.9594913  64.4148903   9.2471673  61.0964913  64.5388903
   9.3161673  62.2834913  65.2218903   9.2591673  61.8794913  64.5518903
   5.1281673  56.7594913  68.1968903   5.2201673  57.4714913  68.6908903
   4.4911673  56.3144913  68.5938903   5.0471673  56.7984913  68.3288903
   4.1221673  56.9494913  59.0508903   3.4221673  57.4674913  58.9948903
   4.1601673  56.5694913  58.2668903   4.0241673  56.9704913  58.9268903
   7.7201673  57.4654913  61.8508903   8.5751673  57.5644913  61.9958903
   7.3511673  58.0184913  62.4158903   7.7921673  57.5624913  61.9558903
   8.0241673  62.7454913  60.3418903   8.6901673  63.2864913  60.5018903
   7.6791673  63.0564913  59.6028903   8.0711673  62.8714913  60.2568903
   8.3371673  70.8114913  56.1488903   8.1631673  70.1574913  56.6988903
   9.0501673  70.5404913  55.7258903   8.4171673  70.6744913  56.1678903
  11.1951673  55.3034913  65.0068903  11.1431673  55.2594913  65.8768903
  11.8821673  54.8004913  64.8168903  11.2891673  55.2234913  65.1068903
   3.2801673  57.4164913  62.0518903   2.5431673  56.9624913  62.1648903
   3.8511673  57.0144913  62.5748903   3.2551673  57.2894913  62.1458903
   6.0121673  68.2644913  63.8398903   6.2181673  68.5654913  64.6318903
   5.9511673  68.9864913  63.3548903   6.0331673  68.4154913  63.8848903
   5.5461673  72.4784913  68.0858903   4.7931673  72.4604913  67.6448903
   5.7141673  73.3304913  68.1698903   5.4601673  72.6014913  68.0328903
  10.8241673  66.9034913  63.2978903  10.7921673  66.0414913  63.1628903
  10.1311673  67.2054913  62.8638903  10.7171673  66.8204913  63.2138903
   8.9291673  70.1634913  62.0948903   9.4561673  70.0804913  61.4038903
   8.5381673  69.3854913  62.1488903   8.9491673  70.0364913  62.0008903
   5.4431673  55.6074913  61.3028903   6.1131673  56.1514913  61.4298903
   4.9401673  56.0314913  60.7298903   5.4681673  55.7504913  61.2368903
   4.8021673  61.4154913  58.7958903   5.3531673  60.8084913  59.0958903
   4.3771673  61.6784913  59.5108903   4.8211673  61.3644913  58.9448903
   6.7721673  63.2464913  55.3578903   6.8401673  62.3964913  55.5388903
   5.9491673  63.3324913  55.0798903   6.6601673  63.1334913  55.3438903
   9.8511673  72.2014913  51.7758903  10.4881673  72.0674913  52.3568903
   9.5101673  71.4074913  51.6588903   9.8951673  72.0644913  51.8438903
  10.0461673  64.6194913  68.5088903  10.6801673  64.4494913  69.0828903
  10.4631673  65.0224913  67.8568903  10.2011673  64.6544913  68.4978903
   5.9261673  68.4664913  54.0978903   5.6751673  68.3384913  54.9238903
   5.6091673  67.7714913  53.6768903   5.8421673  68.3454913  54.1578903
  10.6711673  59.1834913  69.2468903  10.4751673  59.8274913  69.8018903
   9.9491673  58.6934913  69.2388903  10.5361673  59.2064913  69.3278903
  10.5701673  60.1244913  62.2178903   9.7371673  60.3744913  62.1458903
  10.5141673  59.2844913  62.4468903  10.4391673  60.0374913  62.2408903
   7.4571673  64.7304913  69.8638903   8.3281673  64.6944913  69.8278903
   7.2381673  65.1504913  69.1318903   7.5541673  64.7864913  69.7508903
   2.8121673  66.6744913  53.5278903   3.5291673  66.3274913  53.1718903
   2.7781673  67.4744913  53.1798903   2.9131673  66.7414913  53.4238903
   4.2211673  55.3154913  37.7666493   3.9761673  55.8034913  37.0866493
   5.0841673  55.2424913  37.6666493   4.3121673  55.3764913  37.6516493
   4.0301673  62.2314913  42.4376493   3.5061673  62.8274913  42.8006493
   4.4271673  61.8634913  43.1216493   4.0111673  62.2654913  42.5926493
  10.1741673  69.6724913  35.4086493  10.8751673  69.1534913  35.4046493
   9.5871673  69.2274913  34.9396493  10.1911673  69.5294913  35.3386493
   6.7011673  63.2984913  39.1136493   6.7811673  63.3024913  38.2446493
   6.1171673  62.6664913  39.2626493   6.6261673  63.2054913  39.0076493
   3.5151673  61.2884913  48.5336493   2.6671673  61.1894913  48.3556493
   3.5441673  62.0334913  48.9876493   3.3941673  61.3844913  48.5746493
   8.0731673  54.2484913  47.6476493   7.9151673  55.0174913  47.2656493
   7.3011673  54.0284913  47.9916493   7.9351673  54.3294913  47.6426493
   5.5351673  58.8894913  32.1616493   5.0851673  59.5704913  32.4686493
   5.6491673  58.3854913  32.8646493   5.4861673  58.9154913  32.3106493
   5.6341673  71.2304913  34.2656493   6.3611673  71.7024913  34.3676493
   5.8631673  70.4364913  34.5456493   5.7761673  71.1834913  34.3226493
   3.8021673  71.6224913  36.2556493   4.0161673  72.1494913  36.9176493
   4.5691673  71.4484913  35.8766493   3.9471673  71.6744913  36.2976493
  10.9291673  58.8624913  38.4566493  10.5831673  59.5404913  38.8826493
  10.2931673  58.2644913  38.4726493  10.7841673  58.8744913  38.5216493
   6.2411673  71.6324913  44.5606493   6.9851673  72.0884913  44.5506493
   6.1201673  71.4184913  43.7236493   6.3331673  71.6684913  44.4356493
   2.4581673  55.5784913  49.3046493   2.6361673  54.7694913  49.0296493
   2.3151673  56.0194913  48.5656493   2.4631673  55.5244913  49.1546493
   3.0521673  60.5044913  38.0776493   3.3391673  60.2724913  37.2876493
   3.7841673  60.5834913  38.5466493   3.2021673  60.4814913  38.0306493
   3.7741673  60.8434913  33.1986493   4.0551673  61.6314913  33.4476493
   2.9981673  61.0084913  32.8356493   3.7011673  60.9844913  33.1816493
   7.8151673  72.8174913  34.6656493   8.4801673  72.6694913  34.1206493
   8.1751673  72.7344913  35.4556493   7.9671673  72.7834913  34.7016493
  10.6041673  57.1854913  43.8256493  11.3611673  57.2574913  43.3976493
  10.6671673  56.4124913  44.2246493  10.7251673  57.0824913  43.8206493
   5.4951673  68.8174913  48.2646493   5.4611673  69.1994913  49.0486493
   6.3491673  68.7754913  48.0936493   5.6161673  68.8674913  48.3556493
   2.6331673  69.0144913  33.0146493   2.4521673  69.5594913  33.6716493
   3.3991673  69.3044913  32.7136493   2.7191673  69.1384913  33.0676493
   6.1401673  56.9104913  34.0686493   6.6801673  56.2284913  34.1446493
   6.2021673  57.3084913  34.8426493   6.2291673  56.8684913  34.1946493
   3.3981673  59.2864913  35.3826493   2.8901673  58.6244913  35.1286493
   3.4501673  59.7904913  34.6726493   3.3311673  59.2634913  35.2406493
   3.9471673  71.9814913  45.7626493   4.7151673  71.9014913  45.3566493
   3.3641673  71.8604913  45.1246493   3.9741673  71.9514913  45.6086493
   3.3981673  56.2274913  35.2736493   2.9431673  55.8254913  34.6476493
   4.1711673  56.3824913  34.8986493   3.4451673  56.1914913  35.1256493
  10.2241673  72.5844913  38.6636493   9.7691673  73.3014913  38.8646493
   9.6101673  72.0134913  38.4216493  10.0661673  72.6064913  38.6576493
   1.9961673  58.5944913  39.7956493   2.0701673  59.1624913  39.1376493
   2.1171673  59.0864913  40.5056493   2.0241673  58.7514913  39.8036493
   7.2211673  68.4294913  38.2076493   7.9221673  67.9474913  38.3966493
   6.5611673  67.8604913  38.2526493   7.2271673  68.2744913  38.2416493
   5.7881673  58.7644913  45.6836493   5.6931673  59.0834913  46.4896493
   5.1951673  58.1254913  45.6456493   5.6861673  58.7164913  45.7976493
   6.4871673  65.4834913  43.8886493   5.9731673  65.0714913  44.4596493
   6.3611673  66.3274913  44.0696493   6.3931673  65.5474913  43.9996493
   7.0441673  54.7084913  38.5196493   7.0931673  54.3904913  39.3306493
   7.3671673  54.0644913  38.0266493   7.0991673  54.5664913  38.5666493
   9.5081673  58.9444913  46.8276493  10.2801673  58.7194913  47.1646493
   9.0331673  59.1614913  47.5276493   9.5521673  58.9434913  46.9806493
   9.7401673  65.9224913  34.0156493   9.8591673  65.6354913  34.8306493
  10.5471673  65.9434913  33.6856493   9.8761673  65.8834913  34.0876493
  11.9741673  70.4314913  48.2696493  11.2921673  70.7414913  47.8226493
  11.6051673  69.9734913  48.9146493  11.8181673  70.4094913  48.2986493
   7.6351673  62.4594913  33.6006493   7.4151673  63.1904913  33.1786493
   7.1871673  62.5104913  34.3476493   7.5361673  62.5744913  33.6486493
  11.8221673  57.3204913  33.0536493  11.1601673  56.7524913  33.0766493
  11.6291673  57.8324913  32.3736493  11.6961673  57.3124913  32.9566493
  12.1451673  61.6984913  45.6096493  12.3601673  60.8984913  45.3336493
  11.2951673  61.7584913  45.4206493  12.0511673  61.5894913  45.5406493
   9.8241673  56.8784913  35.3326493  10.5701673  56.4714913  35.5316493
  10.0871673  57.5934913  34.9076493   9.9731673  56.9244913  35.2996493
   3.7671673  69.3644913  39.9086493   3.2441673  69.9984913  39.6156493
   4.0771673  69.0004913  39.1796493   3.7351673  69.4044913  39.7576493
   6.2781673  59.1664913  40.4056493   6.6221673  59.3184913  41.1926493
   5.8251673  58.4284913  40.5186493   6.2621673  59.0794913  40.5386493
   9.8081673  70.8134913  46.3596493   9.1371673  71.3274913  46.5776493
   9.8711673  70.9134913  45.4956493   9.7181673  70.9044913  46.2646493
   7.5991673  60.4984913  42.9596493   6.9371673  60.8264913  43.4226493
   7.7861673  61.1324913  42.3906493   7.5291673  60.6404913  42.9436493
   4.2441673  56.4044913  46.3886493   4.3931673  55.5794913  46.1456493
   4.6231673  56.4594913  47.1726493   4.3221673  56.2904913  46.4686493
   5.7921673  58.4674913  36.4706493   6.2821673  59.1844913  36.3936493
   5.0021673  58.7284913  36.2076493   5.7481673  58.6114913  36.4206493
   7.1061673  66.3454913  48.3806493   7.5901673  67.0634913  48.4786493
   7.5001673  65.9184913  47.7296493   7.2361673  66.3884913  48.2986493
   2.3741673  59.9374913  42.1956493   2.8541673  60.6364913  42.4036493
   2.7471673  59.2904913  42.6466493   2.5001673  59.9454913  42.2926493
   4.5631673  63.1064913  34.4696493   4.5551673  63.8284913  33.9796493
   3.9241673  63.2414913  35.0466493   4.4681673  63.2334913  34.4826493
   9.5351673  66.9764913  38.4506493   9.8911673  66.6264913  39.1656493
   9.5271673  66.3154913  37.8806493   9.5871673  66.8264913  38.4716493
   5.5801673  70.0424913  42.2946493   4.9771673  69.7464913  41.7376493
   6.1251673  70.4944913  41.7856493   5.5711673  70.0654913  42.1366493
   5.5931673  66.8934913  41.6946493   4.7961673  67.1174913  41.9686493
   5.8511673  66.2994913  42.2796493   5.5131673  66.8384913  41.8216493
   1.7771673  71.2214913  34.5446493   2.3991673  71.3844913  35.1346493
   1.8131673  71.9124913  34.0126493   1.8741673  71.3474913  34.5536493
   8.8531673  64.8914913  46.5406493   8.9081673  65.0164913  45.6786493
   9.6061673  65.2114913  46.8426493   8.9721673  64.9564913  46.4576493
   5.0441673  70.2404913  50.8176493   5.2081673  70.5234913  51.6266493
   5.3071673  70.9014913  50.3126493   5.1071673  70.3804913  50.8626493
   9.8851673  55.1894913  49.5276493   9.2481673  54.7894913  49.0856493
   9.9111673  54.7584913  50.2856493   9.7951673  55.0674913  49.5736493
   4.5841673  64.6974913  46.1406493   4.4291673  65.3074913  46.7446493
   5.1181673  64.1394913  46.5466493   4.6401673  64.7054913  46.2896493
   2.9681673  63.0974913  36.7986493   3.0271673  63.7474913  37.3776493
   2.7791673  62.4014913  37.2896493   2.9491673  63.0904913  36.9566493
   8.1941673  67.4264913  42.6676493   7.7151673  67.7244913  42.0016493
   7.8381673  66.6504913  42.8456493   8.0711673  67.3554913  42.5956493
  11.8861673  71.5924913  34.6076493  12.5801673  71.1254913  34.3596493
  11.3471673  70.9944913  34.9446493  11.9091673  71.4344913  34.6206493
   9.1251673  64.3684913  43.7866493   9.1181673  63.5924913  44.1846493
   8.2841673  64.6024913  43.7796493   9.0001673  64.2884913  43.8446493
  10.3811673  64.4394913  41.2236493  10.0951673  64.8404913  41.9436493
  11.2411673  64.3774913  41.3506493  10.4661673  64.4894913  41.3486493
   8.0431673  58.3634913  49.7636493   7.5181673  58.8224913  50.2876493
   7.6821673  57.5684913  49.7576493   7.9121673  58.3134913  49.8396493
  11.5121673  70.0724913  41.7526493  11.8021673  70.3294913  40.9716493
  12.2071673  70.1684913  42.2716493  11.6581673  70.1244913  41.7136493
   6.5351673  61.9324913  49.8396493   6.6081673  62.0364913  50.7026493
   5.9011673  62.4904913  49.6186493   6.4521673  62.0304913  49.9346493
   8.8031673  62.2514913  48.2046493   9.1221673  63.0374913  48.4076493
   8.4331673  61.9814913  48.9476493   8.7961673  62.3274913  48.3446493
   8.1171673  68.6754913  33.7346493   8.4511673  67.8694913  33.7696493
   7.3621673  68.6034913  34.1646493   8.0551673  68.5454913  33.8036493
   8.5991673  60.5094913  39.3936493   7.8541673  60.1864913  39.7116493
   8.6011673  61.3354913  39.6736493   8.4891673  60.5834913  39.4816493
  11.5011673  62.7934913  50.9396493  11.4491673  62.4524913  50.1386493
  12.2381673  63.2604913  50.9176493  11.6021673  62.8124913  50.8176493
  11.0391673  66.4694913  47.1456493  11.6671673  65.9204913  46.8896493
  10.9781673  67.0344913  46.4836493  11.1231673  66.4724913  47.0096493
   5.4911673  66.5504913  33.1376493   6.1751673  66.0364913  32.9686493
   5.0741673  66.5964913  32.3726493   5.5301673  66.4814913  32.9996493
   7.5111673  56.8394913  46.8546493   8.2551673  57.2914913  46.7916493
   6.9451673  57.3094913  46.3856493   7.5381673  56.9764913  46.7766493
   2.6891673  64.1234913  43.9326493   3.1651673  64.4974913  44.5606493
   1.8661673  64.2574913  44.1916493   2.6381673  64.1984913  44.0636493
   8.7961673  54.8194913  44.5246493   8.5161673  55.6444913  44.4806493
   9.5121673  54.8724913  45.0206493   8.8611673  54.9494913  44.5916493
   4.4451673  66.3784913  49.5386493   5.2021673  66.6644913  49.2126493
   3.8981673  66.4304913  48.8606493   4.4761673  66.4284913  49.3896493
   8.3541673  68.9284913  48.0426493   8.7001673  69.1984913  48.7966493
   8.6481673  69.5104913  47.4626493   8.4491673  69.0544913  48.0686493
  10.2171673  61.0744913  33.3816493  10.5951673  61.7514913  32.9816493
   9.3751673  61.2984913  33.4126493  10.1481673  61.2074913  33.3266493
   5.6761673  59.6894913  48.2066493   5.0281673  60.1594913  48.5546493
   6.2411673  59.6004913  48.8656493   5.6641673  59.7454913  48.3556493
   5.3641673  61.2264913  44.5046493   5.6661673  61.6464913  45.2076493
   5.4001673  60.3864913  44.7366493   5.4141673  61.1644913  44.6426493
   2.7891673  71.3934913  48.4296493   3.2671673  70.7934913  48.0136493
   2.4381673  70.9504913  49.0946493   2.8081673  71.2394913  48.4666493
   7.9121673  60.6734913  36.7566493   8.1191673  60.4724913  37.5806493
   8.6681673  60.9414913  36.4146493   8.0541673  60.6834913  36.8276493
   8.9341673  56.7564913  38.2306493   8.2201673  56.2854913  38.4016493
   8.7721673  57.0974913  37.4446493   8.8051673  56.7374913  38.1396493
   9.3771673  64.7004913  36.6106493   9.8531673  63.9714913  36.5626493
   8.5561673  64.4144913  36.5346493   9.3261673  64.5504913  36.5916493
   2.8481673  66.6124913  47.4496493   2.0531673  66.5484913  47.8006493
   2.9191673  67.4594913  47.2546493   2.7411673  66.7274913  47.4726493
   5.5931673  65.8674913  38.9656493   5.6691673  66.2084913  39.7646493
   5.7621673  65.0204913  39.0866493   5.6291673  65.7924913  39.1016493
   3.1151673  65.1414913  38.5306493   2.8171673  64.8264913  39.2876493
   3.8101673  65.6144913  38.7656493   3.1741673  65.1644913  38.6776493
   3.3371673  69.2594913  46.5576493   4.0241673  69.1454913  47.0826493
   3.4711673  70.0504913  46.2136493   3.4581673  69.3594913  46.5846493
  11.5131673  61.8684913  48.3686493  10.6581673  61.7464913  48.4946493
  11.6661673  61.4734913  47.6056493  11.4091673  61.7914913  48.2746493
   6.0261673  62.5334913  46.9446493   5.7711673  61.8144913  47.3666493
   6.8471673  62.6494913  47.2146493   6.1101673  62.4444913  47.0466493
   3.9601673  63.7234913  50.1316493   4.2831673  64.4094913  49.6996493
   3.2561673  64.0464913  50.5336493   3.9031673  63.8724913  50.1266493
   7.0441673  72.0974913  41.0606493   6.5931673  72.7404913  41.4396493
   7.7521673  72.0184913  41.5656493   7.0821673  72.1804913  41.1916493
   3.7451673  67.1874913  43.9906493   3.0511673  67.5894913  44.3336493
   4.4221673  67.6204913  44.3296493   3.7421673  67.3104913  44.0916493
   9.1221673  69.7804913  50.5706493   9.8981673  69.3904913  50.6536493
   8.6531673  69.4444913  51.2256493   9.1671673  69.6734913  50.6796493
  10.1471673  61.8134913  36.0526493  10.2501673  61.7554913  35.1886493
  10.8881673  61.4814913  36.3706493  10.2721673  61.7564913  35.9716493
   4.0671673  68.7784913  37.1596493   3.8621673  69.6114913  37.0006493
   3.2921673  68.3964913  37.2816493   3.9221673  68.8454913  37.1546493
   9.2491673  61.9594913  45.4086493   9.2471673  61.0964913  45.5326493
   9.3161673  62.2834913  46.2156493   9.2591673  61.8794913  45.5456493
   5.1281673  56.7594913  49.1906493   5.2201673  57.4714913  49.6846493
   4.4911673  56.3144913  49.5876493   5.0471673  56.7984913  49.3226493
   4.1221673  56.9494913  40.0446493   3.4221673  57.4674913  39.9886493
   4.1601673  56.5694913  39.2606493   4.0241673  56.9704913  39.9206493
   7.7201673  57.4654913  42.8446493   8.5751673  57.5644913  42.9896493
   7.3511673  58.0184913  43.4096493   7.7921673  57.5624913  42.9496493
   8.0241673  62.7454913  41.3356493   8.6901673  63.2864913  41.4956493
   7.6791673  63.0564913  40.5966493   8.0711673  62.8714913  41.2506493
   8.3371673  70.8114913  37.1426493   8.1631673  70.1574913  37.6926493
   9.0501673  70.5404913  36.7196493   8.4171673  70.6744913  37.1616493
  11.1951673  55.3034913  46.0006493  11.1431673  55.2594913  46.8706493
  11.8821673  54.8004913  45.8106493  11.2891673  55.2234913  46.1006493
   3.2801673  57.4164913  43.0456493   2.5431673  56.9624913  43.1586493
   3.8511673  57.0144913  43.5686493   3.2551673  57.2894913  43.1396493
   6.0121673  68.2644913  44.8336493   6.2181673  68.5654913  45.6256493
   5.9511673  68.9864913  44.3486493   6.0331673  68.4154913  44.8786493
   5.5461673  72.4784913  49.0796493   4.7931673  72.4604913  48.6386493
   5.7141673  73.3304913  49.1636493   5.4601673  72.6014913  49.0266493
  10.8241673  66.9034913  44.2916493  10.7921673  66.0414913  44.1566493
  10.1311673  67.2054913  43.8576493  10.7171673  66.8204913  44.2076493
   8.9291673  70.1634913  43.0886493   9.4561673  70.0804913  42.3976493
   8.5381673  69.3854913  43.1426493   8.9491673  70.0364913  42.9946493
   5.4431673  55.6074913  42.2966493   6.1131673  56.1514913  42.4236493
   4.9401673  56.0314913  41.7236493   5.4681673  55.7504913  42.2306493
   4.8021673  61.4154913  39.7896493   5.3531673  60.8084913  40.0896493
   4.3771673  61.6784913  40.5046493   4.8211673  61.3644913  39.9386493
   6.7721673  63.2464913  36.3516493   6.8401673  62.3964913  36.5326493
   5.9491673  63.3324913  36.0736493   6.6601673  63.1334913  36.3376493
   9.8511673  72.2014913  32.7696493  10.4881673  72.0674913  33.3506493
   9.5101673  71.4074913  32.6526493   9.8951673  72.0644913  32.8376493
  10.0461673  64.6194913  49.5026493  10.6801673  64.4494913  50.0766493
  10.4631673  65.0224913  48.8506493  10.2011673  64.6544913  49.4916493
   5.9261673  68.4664913  35.0916493   5.6751673  68.3384913  35.9176493
   5.6091673  67.7714913  34.6706493   5.8421673  68.3454913  35.1516493
  10.6711673  59.1834913  50.2406493  10.4751673  59.8274913  50.7956493
   9.9491673  58.6934913  50.2326493  10.5361673  59.2064913  50.3216493
  10.5701673  60.1244913  43.2116493   9.7371673  60.3744913  43.1396493
  10.5141673  59.2844913  43.4406493  10.4391673  60.0374913  43.2346493
   7.4571673  64.7304913  50.8576493   8.3281673  64.6944913  50.8216493
   7.2381673  65.1504913  50.1256493   7.5541673  64.7864913  50.7446493
   2.8121673  66.6744913  34.5216493   3.5291673  66.3274913  34.1656493
   2.7781673  67.4744913  34.1736493   2.9131673  66.7414913  34.4176493
   4.2211673  55.3154913  18.7604083   3.9761673  55.8034913  18.0804083
   5.0841673  55.2424913  18.6604083   4.3121673  55.3764913  18.6454083
   4.0301673  62.2314913  23.4314083   3.5061673  62.8274913  23.7944083
   4.4271673  61.8634913  24.1154083   4.0111673  62.2654913  23.5864083
  10.1741673  69.6724913  16.4024083  10.8751673  69.1534913  16.3984083
   9.5871673  69.2274913  15.9334083  10.1911673  69.5294913  16.3324083
   6.7011673  63.2984913  20.1074083   6.7811673  63.3024913  19.2384083
   6.1171673  62.6664913  20.2564083   6.6261673  63.2054913  20.0014083
   3.5151673  61.2884913  29.5274083   2.6671673  61.1894913  29.3494083
   3.5441673  62.0334913  29.9814083   3.3941673  61.3844913  29.5684083
   8.0731673  54.2484913  28.6414083   7.9151673  55.0174913  28.2594083
   7.3011673  54.0284913  28.9854083   7.9351673  54.3294913  28.6364083
   5.5351673  58.8894913  13.1554083   5.0851673  59.5704913  13.4624083
   5.6491673  58.3854913  13.8584083   5.4861673  58.9154913  13.3044083
   5.6341673  71.2304913  15.2594083   6.3611673  71.7024913  15.3614083
   5.8631673  70.4364913  15.5394083   5.7761673  71.1834913  15.3164083
   3.8021673  71.6224913  17.2494083   4.0161673  72.1494913  17.9114083
   4.5691673  71.4484913  16.8704083   3.9471673  71.6744913  17.2914083
  10.9291673  58.8624913  19.4504083  10.5831673  59.5404913  19.8764083
  10.2931673  58.2644913  19.4664083  10.7841673  58.8744913  19.5154083
   6.2411673  71.6324913  25.5544083   6.9851673  72.0884913  25.5444083
   6.1201673  71.4184913  24.7174083   6.3331673  71.6684913  25.4294083
   2.4581673  55.5784913  30.2984083   2.6361673  54.7694913  30.0234083
   2.3151673  56.0194913  29.5594083   2.4631673  55.5244913  30.1484083
   3.0521673  60.5044913  19.0714083   3.3391673  60.2724913  18.2814083
   3.7841673  60.5834913  19.5404083   3.2021673  60.4814913  19.0244083
   3.7741673  60.8434913  14.1924083   4.0551673  61.6314913  14.4414083
   2.9981673  61.0084913  13.8294083   3.7011673  60.9844913  14.1754083
   7.8151673  72.8174913  15.6594083   8.4801673  72.6694913  15.1144083
   8.1751673  72.7344913  16.4494083   7.9671673  72.7834913  15.6954083
  10.6041673  57.1854913  24.8194083  11.3611673  57.2574913  24.3914083
  10.6671673  56.4124913  25.2184083  10.7251673  57.0824913  24.8144083
   5.4951673  68.8174913  29.2584083   5.4611673  69.1994913  30.0424083
   6.3491673  68.7754913  29.0874083   5.6161673  68.8674913  29.3494083
   2.6331673  69.0144913  14.0084083   2.4521673  69.5594913  14.6654083
   3.3991673  69.3044913  13.7074083   2.7191673  69.1384913  14.0614083
   6.1401673  56.9104913  15.0624083   6.6801673  56.2284913  15.1384083
   6.2021673  57.3084913  15.8364083   6.2291673  56.8684913  15.1884083
   3.3981673  59.2864913  16.3764083   2.8901673  58.6244913  16.1224083
   3.4501673  59.7904913  15.6664083   3.3311673  59.2634913  16.2344083
   3.9471673  71.9814913  26.7564083   4.7151673  71.9014913  26.3504083
   3.3641673  71.8604913  26.1184083   3.9741673  71.9514913  26.6024083
   3.3981673  56.2274913  16.2674083   2.9431673  55.8254913  15.6414083
   4.1711673  56.3824913  15.8924083   3.4451673  56.1914913  16.1194083
  10.2241673  72.5844913  19.6574083   9.7691673  73.3014913  19.8584083
   9.6101673  72.0134913  19.4154083  10.0661673  72.6064913  19.6514083
   1.9961673  58.5944913  20.7894083   2.0701673  59.1624913  20.1314083
   2.1171673  59.0864913  21.4994083   2.0241673  58.7514913  20.7974083
   7.2211673  68.4294913  19.2014083   7.9221673  67.9474913  19.3904083
   6.5611673  67.8604913  19.2464083   7.2271673  68.2744913  19.2354083
   5.7881673  58.7644913  26.6774083   5.6931673  59.0834913  27.4834083
   5.1951673  58.1254913  26.6394083   5.6861673  58.7164913  26.7914083
   6.4871673  65.4834913  24.8824083   5.9731673  65.0714913  25.4534083
   6.3611673  66.3274913  25.0634083   6.3931673  65.5474913  24.9934083
   7.0441673  54.7084913  19.5134083   7.0931673  54.3904913  20.3244083
   7.3671673  54.0644913  19.0204083   7.0991673  54.5664913  19.5604083
   9.5081673  58.9444913  27.8214083  10.2801673  58.7194913  28.1584083
   9.0331673  59.1614913  28.5214083   9.5521673  58.9434913  27.9744083
   9.7401673  65.9224913  15.0094083   9.8591673  65.6354913  15.8244083
  10.5471673  65.9434913  14.6794083   9.8761673  65.8834913  15.0814083
  11.9741673  70.4314913  29.2634083  11.2921673  70.7414913  28.8164083
  11.6051673  69.9734913  29.9084083  11.8181673  70.4094913  29.2924083
   7.6351673  62.4594913  14.5944083   7.4151673  63.1904913  14.1724083
   7.1871673  62.5104913  15.3414083   7.5361673  62.5744913  14.6424083
  11.8221673  57.3204913  14.0474083  11.1601673  56.7524913  14.0704083
  11.6291673  57.8324913  13.3674083  11.6961673  57.3124913  13.9504083
  12.1451673  61.6984913  26.6034083  12.3601673  60.8984913  26.3274083
  11.2951673  61.7584913  26.4144083  12.0511673  61.5894913  26.5344083
   9.8241673  56.8784913  16.3264083  10.5701673  56.4714913  16.5254083
  10.0871673  57.5934913  15.9014083   9.9731673  56.9244913  16.2934083
   3.7671673  69.3644913  20.9024083   3.2441673  69.9984913  20.6094083
   4.0771673  69.0004913  20.1734083   3.7351673  69.4044913  20.7514083
   6.2781673  59.1664913  21.3994083   6.6221673  59.3184913  22.1864083
   5.8251673  58.4284913  21.5124083   6.2621673  59.0794913  21.5324083
   9.8081673  70.8134913  27.3534083   9.1371673  71.3274913  27.5714083
   9.8711673  70.9134913  26.4894083   9.7181673  70.9044913  27.2584083
   7.5991673  60.4984913  23.9534083   6.9371673  60.8264913  24.4164083
   7.7861673  61.1324913  23.3844083   7.5291673  60.6404913  23.9374083
   4.2441673  56.4044913  27.3824083   4.3931673  55.5794913  27.1394083
   4.6231673  56.4594913  28.1664083   4.3221673  56.2904913  27.4624083
   5.7921673  58.4674913  17.4644083   6.2821673  59.1844913  17.3874083
   5.0021673  58.7284913  17.2014083   5.7481673  58.6114913  17.4144083
   7.1061673  66.3454913  29.3744083   7.5901673  67.0634913  29.4724083
   7.5001673  65.9184913  28.7234083   7.2361673  66.3884913  29.2924083
   2.3741673  59.9374913  23.1894083   2.8541673  60.6364913  23.3974083
   2.7471673  59.2904913  23.6404083   2.5001673  59.9454913  23.2864083
   4.5631673  63.1064913  15.4634083   4.5551673  63.8284913  14.9734083
   3.9241673  63.2414913  16.0404083   4.4681673  63.2334913  15.4764083
   9.5351673  66.9764913  19.4444083   9.8911673  66.6264913  20.1594083
   9.5271673  66.3154913  18.8744083   9.5871673  66.8264913  19.4654083
   5.5801673  70.0424913  23.2884083   4.9771673  69.7464913  22.7314083
   6.1251673  70.4944913  22.7794083   5.5711673  70.0654913  23.1304083
   5.5931673  66.8934913  22.6884083   4.7961673  67.1174913  22.9624083
   5.8511673  66.2994913  23.2734083   5.5131673  66.8384913  22.8154083
   1.7771673  71.2214913  15.5384083   2.3991673  71.3844913  16.1284083
   1.8131673  71.9124913  15.0064083   1.8741673  71.3474913  15.5474083
   8.8531673  64.8914913  27.5344083   8.9081673  65.0164913  26.6724083
   9.6061673  65.2114913  27.8364083   8.9721673  64.9564913  27.4514083
   5.0441673  70.2404913  31.8114083   5.2081673  70.5234913  32.6204083
   5.3071673  70.9014913  31.3064083   5.1071673  70.3804913  31.8564083
   9.8851673  55.1894913  30.5214083   9.2481673  54.7894913  30.0794083
   9.9111673  54.7584913  31.2794083   9.7951673  55.0674913  30.5674083
   4.5841673  64.6974913  27.1344083   4.4291673  65.3074913  27.7384083
   5.1181673  64.1394913  27.5404083   4.6401673  64.7054913  27.2834083
   2.9681673  63.0974913  17.7924083   3.0271673  63.7474913  18.3714083
   2.7791673  62.4014913  18.2834083   2.9491673  63.0904913  17.9504083
   8.1941673  67.4264913  23.6614083   7.7151673  67.7244913  22.9954083
   7.8381673  66.6504913  23.8394083   8.0711673  67.3554913  23.5894083
  11.8861673  71.5924913  15.6014083  12.5801673  71.1254913  15.3534083
  11.3471673  70.9944913  15.9384083  11.9091673  71.4344913  15.6144083
   9.1251673  64.3684913  24.7804083   9.1181673  63.5924913  25.1784083
   8.2841673  64.6024913  24.7734083   9.0001673  64.2884913  24.8384083
  10.3811673  64.4394913  22.2174083  10.0951673  64.8404913  22.9374083
  11.2411673  64.3774913  22.3444083  10.4661673  64.4894913  22.3424083
   8.0431673  58.3634913  30.7574083   7.5181673  58.8224913  31.2814083
   7.6821673  57.5684913  30.7514083   7.9121673  58.3134913  30.8334083
  11.5121673  70.0724913  22.7464083  11.8021673  70.3294913  21.9654083
  12.2071673  70.1684913  23.2654083  11.6581673  70.1244913  22.7074083
   6.5351673  61.9324913  30.8334083   6.6081673  62.0364913  31.6964083
   5.9011673  62.4904913  30.6124083   6.4521673  62.0304913  30.9284083
   8.8031673  62.2514913  29.1984083   9.1221673  63.0374913  29.4014083
   8.4331673  61.9814913  29.9414083   8.7961673  62.3274913  29.3384083
   8.1171673  68.6754913  14.7284083   8.4511673  67.8694913  14.7634083
   7.3621673  68.6034913  15.1584083   8.0551673  68.5454913  14.7974083
   8.5991673  60.5094913  20.3874083   7.8541673  60.1864913  20.7054083
   8.6011673  61.3354913  20.6674083   8.4891673  60.5834913  20.4754083
  11.5011673  62.7934913  31.9334083  11.4491673  62.4524913  31.1324083
  12.2381673  63.2604913  31.9114083  11.6021673  62.8124913  31.8114083
  11.0391673  66.4694913  28.1394083  11.6671673  65.9204913  27.8834083
  10.9781673  67.0344913  27.4774083  11.1231673  66.4724913  28.0034083
   5.4911673  66.5504913  14.1314083   6.1751673  66.0364913  13.9624083
   5.0741673  66.5964913  13.3664083   5.5301673  66.4814913  13.9934083
   7.5111673  56.8394913  27.8484083   8.2551673  57.2914913  27.7854083
   6.9451673  57.3094913  27.3794083   7.5381673  56.9764913  27.7704083
   2.6891673  64.1234913  24.9264083   3.1651673  64.4974913  25.5544083
   1.8661673  64.2574913  25.1854083   2.6381673  64.1984913  25.0574083
   8.7961673  54.8194913  25.5184083   8.5161673  55.6444913  25.4744083
   9.5121673  54.8724913  26.0144083   8.8611673  54.9494913  25.5854083
   4.4451673  66.3784913  30.5324083   5.2021673  66.6644913  30.2064083
   3.8981673  66.4304913  29.8544083   4.4761673  66.4284913  30.3834083
   8.3541673  68.9284913  29.0364083   8.7001673  69.1984913  29.7904083
   8.6481673  69.5104913  28.4564083   8.4491673  69.0544913  29.0624083
  10.2171673  61.0744913  14.3754083  10.5951673  61.7514913  13.9754083
   9.3751673  61.2984913  14.4064083  10.1481673  61.2074913  14.3204083
   5.6761673  59.6894913  29.2004083   5.0281673  60.1594913  29.5484083
   6.2411673  59.6004913  29.8594083   5.6641673  59.7454913  29.3494083
   5.3641673  61.2264913  25.4984083   5.6661673  61.6464913  26.2014083
   5.4001673  60.3864913  25.7304083   5.4141673  61.1644913  25.6364083
   2.7891673  71.3934913  29.4234083   3.2671673  70.7934913  29.0074083
   2.4381673  70.9504913  30.0884083   2.8081673  71.2394913  29.4604083
   7.9121673  60.6734913  17.7504083   8.1191673  60.4724913  18.5744083
   8.6681673  60.9414913  17.4084083   8.0541673  60.6834913  17.8214083
   8.9341673  56.7564913  19.2244083   8.2201673  56.2854913  19.3954083
   8.7721673  57.0974913  18.4384083   8.8051673  56.7374913  19.1334083
   9.3771673  64.7004913  17.6044083   9.8531673  63.9714913  17.5564083
   8.5561673  64.4144913  17.5284083   9.3261673  64.5504913  17.5854083
   2.8481673  66.6124913  28.4434083   2.0531673  66.5484913  28.7944083
   2.9191673  67.4594913  28.2484083   2.7411673  66.7274913  28.4664083
   5.5931673  65.8674913  19.9594083   5.6691673  66.2084913  20.7584083
   5.7621673  65.0204913  20.0804083   5.6291673  65.7924913  20.0954083
   3.1151673  65.1414913  19.5244083   2.8171673  64.8264913  20.2814083
   3.8101673  65.6144913  19.7594083   3.1741673  65.1644913  19.6714083
   3.3371673  69.2594913  27.5514083   4.0241673  69.1454913  28.0764083
   3.4711673  70.0504913  27.2074083   3.4581673  69.3594913  27.5784083
  11.5131673  61.8684913  29.3624083  10.6581673  61.7464913  29.4884083
  11.6661673  61.4734913  28.5994083  11.4091673  61.7914913  29.2684083
   6.0261673  62.5334913  27.9384083   5.7711673  61.8144913  28.3604083
   6.8471673  62.6494913  28.2084083   6.1101673  62.4444913  28.0404083
   3.9601673  63.7234913  31.1254083   4.2831673  64.4094913  30.6934083
   3.2561673  64.0464913  31.5274083   3.9031673  63.8724913  31.1204083
   7.0441673  72.0974913  22.0544083   6.5931673  72.7404913  22.4334083
   7.7521673  72.0184913  22.5594083   7.0821673  72.1804913  22.1854083
   3.7451673  67.1874913  24.9844083   3.0511673  67.5894913  25.3274083
   4.4221673  67.6204913  25.3234083   3.7421673  67.3104913  25.0854083
   9.1221673  69.7804913  31.5644083   9.8981673  69.3904913  31.6474083
   8.6531673  69.4444913  32.2194083   9.1671673  69.6734913  31.6734083
  10.1471673  61.8134913  17.0464083  10.2501673  61.7554913  16.1824083
  10.8881673  61.4814913  17.3644083  10.2721673  61.7564913  16.9654083
   4.0671673  68.7784913  18.1534083   3.8621673  69.6114913  17.9944083
   3.2921673  68.3964913  18.2754083   3.9221673  68.8454913  18.1484083
   9.2491673  61.9594913  26.4024083   9.2471673  61.0964913  26.5264083
   9.3161673  62.2834913  27.2094083   9.2591673  61.8794913  26.5394083
   5.1281673  56.7594913  30.1844083   5.2201673  57.4714913  30.6784083
   4.4911673  56.3144913  30.5814083   5.0471673  56.7984913  30.3164083
   4.1221673  56.9494913  21.0384083   3.4221673  57.4674913  20.9824083
   4.1601673  56.5694913  20.2544083   4.0241673  56.9704913  20.9144083
   7.7201673  57.4654913  23.8384083   8.5751673  57.5644913  23.9834083
   7.3511673  58.0184913  24.4034083   7.7921673  57.5624913  23.9434083
   8.0241673  62.7454913  22.3294083   8.6901673  63.2864913  22.4894083
   7.6791673  63.0564913  21.5904083   8.0711673  62.8714913  22.2444083
   8.3371673  70.8114913  18.1364083   8.1631673  70.1574913  18.6864083
   9.0501673  70.5404913  17.7134083   8.4171673  70.6744913  18.1554083
  11.1951673  55.3034913  26.9944083  11.1431673  55.2594913  27.8644083
  11.8821673  54.8004913  26.8044083  11.2891673  55.2234913  27.0944083
   3.2801673  57.4164913  24.0394083   2.5431673  56.9624913  24.1524083
   3.8511673  57.0144913  24.5624083   3.2551673  57.2894913  24.1334083
   6.0121673  68.2644913  25.8274083   6.2181673  68.5654913  26.6194083
   5.9511673  68.9864913  25.3424083   6.0331673  68.4154913  25.8724083
   5.5461673  72.4784913  30.0734083   4.7931673  72.4604913  29.6324083
   5.7141673  73.3304913  30.1574083   5.4601673  72.6014913  30.0204083
  10.8241673  66.9034913  25.2854083  10.7921673  66.0414913  25.1504083
  10.1311673  67.2054913  24.8514083  10.7171673  66.8204913  25.2014083
   8.9291673  70.1634913  24.0824083   9.4561673  70.0804913  23.3914083
   8.5381673  69.3854913  24.1364083   8.9491673  70.0364913  23.9884083
   5.4431673  55.6074913  23.2904083   6.1131673  56.1514913  23.4174083
   4.9401673  56.0314913  22.7174083   5.4681673  55.7504913  23.2244083
   4.8021673  61.4154913  20.7834083   5.3531673  60.8084913  21.0834083
   4.3771673  61.6784913  21.4984083   4.8211673  61.3644913  20.9324083
   6.7721673  63.2464913  17.3454083   6.8401673  62.3964913  17.5264083
   5.9491673  63.3324913  17.0674083   6.6601673  63.1334913  17.3314083
   9.8511673  72.2014913  13.7634083  10.4881673  72.0674913  14.3444083
   9.5101673  71.4074913  13.6464083   9.8951673  72.0644913  13.8314083
  10.0461673  64.6194913  30.4964083  10.6801673  64.4494913  31.0704083
  10.4631673  65.0224913  29.8444083  10.2011673  64.6544913  30.4854083
   5.9261673  68.4664913  16.0854083   5.6751673  68.3384913  16.9114083
   5.6091673  67.7714913  15.6644083   5.8421673  68.3454913  16.1454083
  10.6711673  59.1834913  31.2344083  10.4751673  59.8274913  31.7894083
   9.9491673  58.6934913  31.2264083  10.5361673  59.2064913  31.3154083
  10.5701673  60.1244913  24.2054083   9.7371673  60.3744913  24.1334083
  10.5141673  59.2844913  24.4344083  10.4391673  60.0374913  24.2284083
   7.4571673  64.7304913  31.8514083   8.3281673  64.6944913  31.8154083
   7.2381673  65.1504913  31.1194083   7.5541673  64.7864913  31.7384083
   2.8121673  66.6744913  15.5154083   3.5291673  66.3274913  15.1594083
   2.7781673  67.4744913  15.1674083   2.9131673  66.7414913  15.4114083
   4.0301673  62.2314913   4.4251673   3.5061673  62.8274913   4.7881673
   4.4271673  61.8634913   5.1091673   4.0111673  62.2654913   4.5801673
   3.5151673  61.2884913  10.5211673   2.6671673  61.1894913  10.3431673
   3.5441673  62.0334913  10.9751673   3.3941673  61.3844913  10.5621673
   8.0731673  54.2484913   9.6351673   7.9151673  55.0174913   9.2531673
   7.3011673  54.0284913   9.9791673   7.9351673  54.3294913   9.6301673
   6.2411673  71.6324913   6.5481673   6.9851673  72.0884913   6.5381673
   6.1201673  71.4184913   5.7111673   6.3331673  71.6684913   6.4231673
   2.4581673  55.5784913  11.2921673   2.6361673  54.7694913  11.0171673
   2.3151673  56.0194913  10.5531673   2.4631673  55.5244913  11.1421673
  10.6041673  57.1854913   5.8131673  11.3611673  57.2574913   5.3851673
  10.6671673  56.4124913   6.2121673  10.7251673  57.0824913   5.8081673
   5.4951673  68.8174913  10.2521673   5.4611673  69.1994913  11.0361673
   6.3491673  68.7754913  10.0811673   5.6161673  68.8674913  10.3431673
   3.9471673  71.9814913   7.7501673   4.7151673  71.9014913   7.3441673
   3.3641673  71.8604913   7.1121673   3.9741673  71.9514913   7.5961673
   5.7881673  58.7644913   7.6711673   5.6931673  59.0834913   8.4771673
   5.1951673  58.1254913   7.6331673   5.6861673  58.7164913   7.7851673
   6.4871673  65.4834913   5.8761673   5.9731673  65.0714913   6.4471673
   6.3611673  66.3274913   6.0571673   6.3931673  65.5474913   5.9871673
   9.5081673  58.9444913   8.8151673  10.2801673  58.7194913   9.1521673
   9.0331673  59.1614913   9.5151673   9.5521673  58.9434913   8.9681673
  11.9741673  70.4314913  10.2571673  11.2921673  70.7414913   9.8101673
  11.6051673  69.9734913  10.9021673  11.8181673  70.4094913  10.2861673
  12.1451673  61.6984913   7.5971673  12.3601673  60.8984913   7.3211673
  11.2951673  61.7584913   7.4081673  12.0511673  61.5894913   7.5281673
   6.2781673  59.1664913   2.3931673   6.6221673  59.3184913   3.1801673
   5.8251673  58.4284913   2.5061673   6.2621673  59.0794913   2.5261673
   9.8081673  70.8134913   8.3471673   9.1371673  71.3274913   8.5651673
   9.8711673  70.9134913   7.4831673   9.7181673  70.9044913   8.2521673
   7.5991673  60.4984913   4.9471673   6.9371673  60.8264913   5.4101673
   7.7861673  61.1324913   4.3781673   7.5291673  60.6404913   4.9311673
   4.2441673  56.4044913   8.3761673   4.3931673  55.5794913   8.1331673
   4.6231673  56.4594913   9.1601673   4.3221673  56.2904913   8.4561673
   7.1061673  66.3454913  10.3681673   7.5901673  67.0634913  10.4661673
   7.5001673  65.9184913   9.7171673   7.2361673  66.3884913  10.2861673
   2.3741673  59.9374913   4.1831673   2.8541673  60.6364913   4.3911673
   2.7471673  59.2904913   4.6341673   2.5001673  59.9454913   4.2801673
   5.5801673  70.0424913   4.2821673   4.9771673  69.7464913   3.7251673
   6.1251673  70.4944913   3.7731673   5.5711673  70.0654913   4.1241673
   5.5931673  66.8934913   3.6821673   4.7961673  67.1174913   3.9561673
   5.8511673  66.2994913   4.2671673   5.5131673  66.8384913   3.8091673
   8.8531673  64.8914913   8.5281673   8.9081673  65.0164913   7.6661673
   9.6061673  65.2114913   8.8301673   8.9721673  64.9564913   8.4451673
   5.0441673  70.2404913  12.8051673   5.2081673  70.5234913  13.6141673
   5.3071673  70.9014913  12.3001673   5.1071673  70.3804913  12.8501673
   9.8851673  55.1894913  11.5151673   9.2481673  54.7894913  11.0731673
   9.9111673  54.7584913  12.2731673   9.7951673  55.0674913  11.5611673
   4.5841673  64.6974913   8.1281673   4.4291673  65.3074913   8.7321673
   5.1181673  64.1394913   8.5341673   4.6401673  64.7054913   8.2771673
   8.1941673  67.4264913   4.6551673   7.7151673  67.7244913   3.9891673
   7.8381673  66.6504913   4.8331673   8.0711673  67.3554913   4.5831673
   9.1251673  64.3684913   5.7741673   9.1181673  63.5924913   6.1721673
   8.2841673  64.6024913   5.7671673   9.0001673  64.2884913   5.8321673
  10.3811673  64.4394913   3.2111673  10.0951673  64.8404913   3.9311673
  11.2411673  64.3774913   3.3381673  10.4661673  64.4894913   3.3361673
   8.0431673  58.3634913  11.7511673   7.5181673  58.8224913  12.2751673
   7.6821673  57.5684913  11.7451673   7.9121673  58.3134913  11.8271673
  11.5121673  70.0724913   3.7401673  11.8021673  70.3294913   2.9591673
  12.2071673  70.1684913   4.2591673  11.6581673  70.1244913   3.7011673
   6.5351673  61.9324913  11.8271673   6.6081673  62.0364913  12.6901673
   5.9011673  62.4904913  11.6061673   6.4521673  62.0304913  11.9221673
   8.8031673  62.2514913  10.1921673   9.1221673  63.0374913  10.3951673
   8.4331673  61.9814913  10.9351673   8.7961673  62.3274913  10.3321673
  11.5011673  62.7934913  12.9271673  11.4491673  62.4524913  12.1261673
  12.2381673  63.2604913  12.9051673  11.6021673  62.8124913  12.8051673
  11.0391673  66.4694913   9.1331673  11.6671673  65.9204913   8.8771673
  10.9781673  67.0344913   8.4711673  11.1231673  66.4724913   8.9971673
   7.5111673  56.8394913   8.8421673   8.2551673  57.2914913   8.7791673
   6.9451673  57.3094913   8.3731673   7.5381673  56.9764913   8.7641673
   2.6891673  64.1234913   5.9201673   3.1651673  64.4974913   6.5481673
   1.8661673  64.2574913   6.1791673   2.6381673  64.1984913   6.0511673
   8.7961673  54.8194913   6.5121673   8.5161673  55.6444913   6.4681673
   9.5121673  54.8724913   7.0081673   8.8611673  54.9494913   6.5791673
   4.4451673  66.3784913  11.5261673   5.2021673  66.6644913  11.2001673
   3.8981673  66.4304913  10.8481673   4.4761673  66.4284913  11.3771673
   8.3541673  68.9284913  10.0301673   8.7001673  69.1984913  10.7841673
   8.6481673  69.5104913   9.4501673   8.4491673  69.0544913  10.0561673
   5.6761673  59.6894913  10.1941673   5.0281673  60.1594913  10.5421673
   6.2411673  59.6004913  10.8531673   5.6641673  59.7454913  10.3431673
   5.3641673  61.2264913   6.4921673   5.6661673  61.6464913   7.1951673
   5.4001673  60.3864913   6.7241673   5.4141673  61.1644913   6.6301673
   2.7891673  71.3934913  10.4171673   3.2671673  70.7934913  10.0011673
   2.4381673  70.9504913  11.0821673   2.8081673  71.2394913  10.4541673
   2.8481673  66.6124913   9.4371673   2.0531673  66.5484913   9.7881673
   2.9191673  67.4594913   9.2421673   2.7411673  66.7274913   9.4601673
   3.3371673  69.2594913   8.5451673   4.0241673  69.1454913   9.0701673
   3.4711673  70.0504913   8.2011673   3.4581673  69.3594913   8.5721673
  11.5131673  61.8684913  10.3561673  10.6581673  61.7464913  10.4821673
  11.6661673  61.4734913   9.5931673  11.4091673  61.7914913  10.2621673
   6.0261673  62.5334913   8.9321673   5.7711673  61.8144913   9.3541673
   6.8471673  62.6494913   9.2021673   6.1101673  62.4444913   9.0341673
   3.9601673  63.7234913  12.1191673   4.2831673  64.4094913  11.6871673
   3.2561673  64.0464913  12.5211673   3.9031673  63.8724913  12.1141673
   7.0441673  72.0974913   3.0481673   6.5931673  72.7404913   3.4271673
   7.7521673  72.0184913   3.5531673   7.0821673  72.1804913   3.1791673
   3.7451673  67.1874913   5.9781673   3.0511673  67.5894913   6.3211673
   4.4221673  67.6204913   6.3171673   3.7421673  67.3104913   6.0791673
   9.1221673  69.7804913  12.5581673   9.8981673  69.3904913  12.6411673
   8.6531673  69.4444913  13.2131673   9.1671673  69.6734913  12.6671673
   9.2491673  61.9594913   7.3961673   9.2471673  61.0964913   7.5201673
   9.3161673  62.2834913   8.2031673   9.2591673  61.8794913   7.5331673
   5.1281673  56.7594913  11.1781673   5.2201673  57.4714913  11.6721673
   4.4911673  56.3144913  11.5751673   5.0471673  56.7984913  11.3101673
   7.7201673  57.4654913   4.8321673   8.5751673  57.5644913   4.9771673
   7.3511673  58.0184913   5.3971673   7.7921673  57.5624913   4.9371673
   8.0241673  62.7454913   3.3231673   8.6901673  63.2864913   3.4831673
   7.6791673  63.0564913   2.5841673   8.0711673  62.8714913   3.2381673
  11.1951673  55.3034913   7.9881673  11.1431673  55.2594913   8.8581673
  11.8821673  54.8004913   7.7981673  11.2891673  55.2234913   8.0881673
   3.2801673  57.4164913   5.0331673   2.5431673  56.9624913   5.1461673
   3.8511673  57.0144913   5.5561673   3.2551673  57.2894913   5.1271673
   6.0121673  68.2644913   6.8211673   6.2181673  68.5654913   7.6131673
   5.9511673  68.9864913   6.3361673   6.0331673  68.4154913   6.8661673
   5.5461673  72.4784913  11.0671673   4.7931673  72.4604913  10.6261673
   5.7141673  73.3304913  11.1511673   5.4601673  72.6014913  11.0141673
  10.8241673  66.9034913   6.2791673  10.7921673  66.0414913   6.1441673
  10.1311673  67.2054913   5.8451673  10.7171673  66.8204913   6.1951673
   8.9291673  70.1634913   5.0761673   9.4561673  70.0804913   4.3851673
   8.5381673  69.3854913   5.1301673   8.9491673  70.0364913   4.9821673
   5.4431673  55.6074913   4.2841673   6.1131673  56.1514913   4.4111673
   4.9401673  56.0314913   3.7111673   5.4681673  55.7504913   4.2181673
   4.8021673  61.4154913   1.7771673   5.3531673  60.8084913   2.0771673
   4.3771673  61.6784913   2.4921673   4.8211673  61.3644913   1.9261673
  10.0461673  64.6194913  11.4901673  10.6801673  64.4494913  12.0641673
  10.4631673  65.0224913  10.8381673  10.2011673  64.6544913  11.4791673
  10.6711673  59.1834913  12.2281673  10.4751673  59.8274913  12.7831673
   9.9491673  58.6934913  12.2201673  10.5361673  59.2064913  12.3091673
  10.5701673  60.1244913   5.1991673   9.7371673  60.3744913   5.1271673
  10.5141673  59.2844913   5.4281673  10.4391673  60.0374913   5.2221673
   7.4571673  64.7304913  12.8451673   8.3281673  64.6944913  12.8091673
   7.2381673  65.1504913  12.1131673   7.5541673  64.7864913  12.7321673
   4.2211673  36.8373833  75.7791313   3.9761673  37.3253833  75.0991313
   5.0841673  36.7643833  75.6791313   4.3121673  36.8983833  75.6641313
   4.0301673  43.7533833  80.4501313   3.5061673  44.3493833  80.8131313
   4.4271673  43.3853833  81.1341313   4.0111673  43.7873833  80.6051313
  10.1741673  51.1943833  73.4211313  10.8751673  50.6753833  73.4171313
   9.5871673  50.7493833  72.9521313  10.1911673  51.0513833  73.3511313
   6.7011673  44.8203833  77.1261313   6.7811673  44.8243833  76.2571313
   6.1171673  44.1883833  77.2751313   6.6261673  44.7273833  77.0201313
   5.5351673  40.4113833  70.1741313   5.0851673  41.0923833  70.4811313
   5.6491673  39.9073833  70.8771313   5.4861673  40.4373833  70.3231313
   5.6341673  52.7523833  72.2781313   6.3611673  53.2243833  72.3801313
   5.8631673  51.9583833  72.5581313   5.7761673  52.7053833  72.3351313
   3.8021673  53.1443833  74.2681313   4.0161673  53.6713833  74.9301313
   4.5691673  52.9703833  73.8891313   3.9471673  53.1963833  74.3101313
  10.9291673  40.3843833  76.4691313  10.5831673  41.0623833  76.8951313
  10.2931673  39.7863833  76.4851313  10.7841673  40.3963833  76.5341313
   3.0521673  42.0263833  76.0901313   3.3391673  41.7943833  75.3001313
   3.7841673  42.1053833  76.5591313   3.2021673  42.0033833  76.0431313
   3.7741673  42.3653833  71.2111313   4.0551673  43.1533833  71.4601313
   2.9981673  42.5303833  70.8481313   3.7011673  42.5063833  71.1941313
   7.8151673  54.3393833  72.6781313   8.4801673  54.1913833  72.1331313
   8.1751673  54.2563833  73.4681313   7.9671673  54.3053833  72.7141313
   2.6331673  50.5363833  71.0271313   2.4521673  51.0813833  71.6841313
   3.3991673  50.8263833  70.7261313   2.7191673  50.6603833  71.0801313
   6.1401673  38.4323833  72.0811313   6.6801673  37.7503833  72.1571313
   6.2021673  38.8303833  72.8551313   6.2291673  38.3903833  72.2071313
   3.3981673  40.8083833  73.3951313   2.8901673  40.1463833  73.1411313
   3.4501673  41.3123833  72.6851313   3.3311673  40.7853833  73.2531313
   3.3981673  37.7493833  73.2861313   2.9431673  37.3473833  72.6601313
   4.1711673  37.9043833  72.9111313   3.4451673  37.7133833  73.1381313
  10.2241673  54.1063833  76.6761313   9.7691673  54.8233833  76.8771313
   9.6101673  53.5353833  76.4341313  10.0661673  54.1283833  76.6701313
   1.9961673  40.1163833  77.8081313   2.0701673  40.6843833  77.1501313
   2.1171673  40.6083833  78.5181313   2.0241673  40.2733833  77.8161313
   7.2211673  49.9513833  76.2201313   7.9221673  49.4693833  76.4091313
   6.5611673  49.3823833  76.2651313   7.2271673  49.7963833  76.2541313
   7.0441673  36.2303833  76.5321313   7.0931673  35.9123833  77.3431313
   7.3671673  35.5863833  76.0391313   7.0991673  36.0883833  76.5791313
   9.7401673  47.4443833  72.0281313   9.8591673  47.1573833  72.8431313
  10.5471673  47.4653833  71.6981313   9.8761673  47.4053833  72.1001313
   7.6351673  43.9813833  71.6131313   7.4151673  44.7123833  71.1911313
   7.1871673  44.0323833  72.3601313   7.5361673  44.0963833  71.6611313
  11.8221673  38.8423833  71.0661313  11.1601673  38.2743833  71.0891313
  11.6291673  39.3543833  70.3861313  11.6961673  38.8343833  70.9691313
   9.8241673  38.4003833  73.3451313  10.5701673  37.9933833  73.5441313
  10.0871673  39.1153833  72.9201313   9.9731673  38.4463833  73.3121313
   3.7671673  50.8863833  77.9211313   3.2441673  51.5203833  77.6281313
   4.0771673  50.5223833  77.1921313   3.7351673  50.9263833  77.7701313
   6.2781673  40.6883833  78.4181313   6.6221673  40.8403833  79.2051313
   5.8251673  39.9503833  78.5311313   6.2621673  40.6013833  78.5511313
   7.5991673  42.0203833  80.9721313   6.9371673  42.3483833  81.4351313
   7.7861673  42.6543833  80.4031313   7.5291673  42.1623833  80.9561313
   5.7921673  39.9893833  74.4831313   6.2821673  40.7063833  74.4061313
   5.0021673  40.2503833  74.2201313   5.7481673  40.1333833  74.4331313
   2.3741673  41.4593833  80.2081313   2.8541673  42.1583833  80.4161313
   2.7471673  40.8123833  80.6591313   2.5001673  41.4673833  80.3051313
   4.5631673  44.6283833  72.4821313   4.5551673  45.3503833  71.9921313
   3.9241673  44.7633833  73.0591313   4.4681673  44.7553833  72.4951313
   9.5351673  48.4983833  76.4631313   9.8911673  48.1483833  77.1781313
   9.5271673  47.8373833  75.8931313   9.5871673  48.3483833  76.4841313
   5.5801673  51.5643833  80.3071313   4.9771673  51.2683833  79.7501313
   6.1251673  52.0163833  79.7981313   5.5711673  51.5873833  80.1491313
   5.5931673  48.4153833  79.7071313   4.7961673  48.6393833  79.9811313
   5.8511673  47.8213833  80.2921313   5.5131673  48.3603833  79.8341313
   1.7771673  52.7433833  72.5571313   2.3991673  52.9063833  73.1471313
   1.8131673  53.4343833  72.0251313   1.8741673  52.8693833  72.5661313
   2.9681673  44.6193833  74.8111313   3.0271673  45.2693833  75.3901313
   2.7791673  43.9233833  75.3021313   2.9491673  44.6123833  74.9691313
   8.1941673  48.9483833  80.6801313   7.7151673  49.2463833  80.0141313
   7.8381673  48.1723833  80.8581313   8.0711673  48.8773833  80.6081313
  11.8861673  53.1143833  72.6201313  12.5801673  52.6473833  72.3721313
  11.3471673  52.5163833  72.9571313  11.9091673  52.9563833  72.6331313
  10.3811673  45.9613833  79.2361313  10.0951673  46.3623833  79.9561313
  11.2411673  45.8993833  79.3631313  10.4661673  46.0113833  79.3611313
  11.5121673  51.5943833  79.7651313  11.8021673  51.8513833  78.9841313
  12.2071673  51.6903833  80.2841313  11.6581673  51.6463833  79.7261313
   8.1171673  50.1973833  71.7471313   8.4511673  49.3913833  71.7821313
   7.3621673  50.1253833  72.1771313   8.0551673  50.0673833  71.8161313
   8.5991673  42.0313833  77.4061313   7.8541673  41.7083833  77.7241313
   8.6011673  42.8573833  77.6861313   8.4891673  42.1053833  77.4941313
   5.4911673  48.0723833  71.1501313   6.1751673  47.5583833  70.9811313
   5.0741673  48.1183833  70.3851313   5.5301673  48.0033833  71.0121313
  10.2171673  42.5963833  71.3941313  10.5951673  43.2733833  70.9941313
   9.3751673  42.8203833  71.4251313  10.1481673  42.7293833  71.3391313
   7.9121673  42.1953833  74.7691313   8.1191673  41.9943833  75.5931313
   8.6681673  42.4633833  74.4271313   8.0541673  42.2053833  74.8401313
   8.9341673  38.2783833  76.2431313   8.2201673  37.8073833  76.4141313
   8.7721673  38.6193833  75.4571313   8.8051673  38.2593833  76.1521313
   9.3771673  46.2223833  74.6231313   9.8531673  45.4933833  74.5751313
   8.5561673  45.9363833  74.5471313   9.3261673  46.0723833  74.6041313
   5.5931673  47.3893833  76.9781313   5.6691673  47.7303833  77.7771313
   5.7621673  46.5423833  77.0991313   5.6291673  47.3143833  77.1141313
   3.1151673  46.6633833  76.5431313   2.8171673  46.3483833  77.3001313
   3.8101673  47.1363833  76.7781313   3.1741673  46.6863833  76.6901313
   7.0441673  53.6193833  79.0731313   6.5931673  54.2623833  79.4521313
   7.7521673  53.5403833  79.5781313   7.0821673  53.7023833  79.2041313
  10.1471673  43.3353833  74.0651313  10.2501673  43.2773833  73.2011313
  10.8881673  43.0033833  74.3831313  10.2721673  43.2783833  73.9841313
   4.0671673  50.3003833  75.1721313   3.8621673  51.1333833  75.0131313
   3.2921673  49.9183833  75.2941313   3.9221673  50.3673833  75.1671313
   4.1221673  38.4713833  78.0571313   3.4221673  38.9893833  78.0011313
   4.1601673  38.0913833  77.2731313   4.0241673  38.4923833  77.9331313
   7.7201673  38.9873833  80.8571313   8.5751673  39.0863833  81.0021313
   7.3511673  39.5403833  81.4221313   7.7921673  39.0843833  80.9621313
   8.0241673  44.2673833  79.3481313   8.6901673  44.8083833  79.5081313
   7.6791673  44.5783833  78.6091313   8.0711673  44.3933833  79.2631313
   8.3371673  52.3333833  75.1551313   8.1631673  51.6793833  75.7051313
   9.0501673  52.0623833  74.7321313   8.4171673  52.1963833  75.1741313
   3.2801673  38.9383833  81.0581313   2.5431673  38.4843833  81.1711313
   3.8511673  38.5363833  81.5811313   3.2551673  38.8113833  81.1521313
   8.9291673  51.6853833  81.1011313   9.4561673  51.6023833  80.4101313
   8.5381673  50.9073833  81.1551313   8.9491673  51.5583833  81.0071313
   5.4431673  37.1293833  80.3091313   6.1131673  37.6733833  80.4361313
   4.9401673  37.5533833  79.7361313   5.4681673  37.2723833  80.2431313
   4.8021673  42.9373833  77.8021313   5.3531673  42.3303833  78.1021313
   4.3771673  43.2003833  78.5171313   4.8211673  42.8863833  77.9511313
   6.7721673  44.7683833  74.3641313   6.8401673  43.9183833  74.5451313
   5.9491673  44.8543833  74.0861313   6.6601673  44.6553833  74.3501313
   9.8511673  53.7233833  70.7821313  10.4881673  53.5893833  71.3631313
   9.5101673  52.9293833  70.6651313   9.8951673  53.5863833  70.8501313
   5.9261673  49.9883833  73.1041313   5.6751673  49.8603833  73.9301313
   5.6091673  49.2933833  72.6831313   5.8421673  49.8673833  73.1641313
  10.5701673  41.6463833  81.2241313   9.7371673  41.8963833  81.1521313
  10.5141673  40.8063833  81.4531313  10.4391673  41.5593833  81.2471313
   2.8121673  48.1963833  72.5341313   3.5291673  47.8493833  72.1781313
   2.7781673  48.9963833  72.1861313   2.9131673  48.2633833  72.4301313
   4.2211673  36.8373833  56.7728903   3.9761673  37.3253833  56.0928903
   5.0841673  36.7643833  56.6728903   4.3121673  36.8983833  56.6578903
   4.0301673  43.7533833  61.4438903   3.5061673  44.3493833  61.8068903
   4.4271673  43.3853833  62.1278903   4.0111673  43.7873833  61.5988903
  10.1741673  51.1943833  54.4148903  10.8751673  50.6753833  54.4108903
   9.5871673  50.7493833  53.9458903  10.1911673  51.0513833  54.3448903
   6.7011673  44.8203833  58.1198903   6.7811673  44.8243833  57.2508903
   6.1171673  44.1883833  58.2688903   6.6261673  44.7273833  58.0138903
   3.5151673  42.8103833  67.5398903   2.6671673  42.7113833  67.3618903
   3.5441673  43.5553833  67.9938903   3.3941673  42.9063833  67.5808903
   8.0731673  35.7703833  66.6538903   7.9151673  36.5393833  66.2718903
   7.3011673  35.5503833  66.9978903   7.9351673  35.8513833  66.6488903
   5.5351673  40.4113833  51.1678903   5.0851673  41.0923833  51.4748903
   5.6491673  39.9073833  51.8708903   5.4861673  40.4373833  51.3168903
   5.6341673  52.7523833  53.2718903   6.3611673  53.2243833  53.3738903
   5.8631673  51.9583833  53.5518903   5.7761673  52.7053833  53.3288903
   3.8021673  53.1443833  55.2618903   4.0161673  53.6713833  55.9238903
   4.5691673  52.9703833  54.8828903   3.9471673  53.1963833  55.3038903
  10.9291673  40.3843833  57.4628903  10.5831673  41.0623833  57.8888903
  10.2931673  39.7863833  57.4788903  10.7841673  40.3963833  57.5278903
   6.2411673  53.1543833  63.5668903   6.9851673  53.6103833  63.5568903
   6.1201673  52.9403833  62.7298903   6.3331673  53.1903833  63.4418903
   2.4581673  37.1003833  68.3108903   2.6361673  36.2913833  68.0358903
   2.3151673  37.5413833  67.5718903   2.4631673  37.0463833  68.1608903
   3.0521673  42.0263833  57.0838903   3.3391673  41.7943833  56.2938903
   3.7841673  42.1053833  57.5528903   3.2021673  42.0033833  57.0368903
   3.7741673  42.3653833  52.2048903   4.0551673  43.1533833  52.4538903
   2.9981673  42.5303833  51.8418903   3.7011673  42.5063833  52.1878903
   7.8151673  54.3393833  53.6718903   8.4801673  54.1913833  53.1268903
   8.1751673  54.2563833  54.4618903   7.9671673  54.3053833  53.7078903
  10.6041673  38.7073833  62.8318903  11.3611673  38.7793833  62.4038903
  10.6671673  37.9343833  63.2308903  10.7251673  38.6043833  62.8268903
   5.4951673  50.3393833  67.2708903   5.4611673  50.7213833  68.0548903
   6.3491673  50.2973833  67.0998903   5.6161673  50.3893833  67.3618903
   2.6331673  50.5363833  52.0208903   2.4521673  51.0813833  52.6778903
   3.3991673  50.8263833  51.7198903   2.7191673  50.6603833  52.0738903
   6.1401673  38.4323833  53.0748903   6.6801673  37.7503833  53.1508903
   6.2021673  38.8303833  53.8488903   6.2291673  38.3903833  53.2008903
   3.3981673  40.8083833  54.3888903   2.8901673  40.1463833  54.1348903
   3.4501673  41.3123833  53.6788903   3.3311673  40.7853833  54.2468903
   3.9471673  53.5033833  64.7688903   4.7151673  53.4233833  64.3628903
   3.3641673  53.3823833  64.1308903   3.9741673  53.4733833  64.6148903
   3.3981673  37.7493833  54.2798903   2.9431673  37.3473833  53.6538903
   4.1711673  37.9043833  53.9048903   3.4451673  37.7133833  54.1318903
  10.2241673  54.1063833  57.6698903   9.7691673  54.8233833  57.8708903
   9.6101673  53.5353833  57.4278903  10.0661673  54.1283833  57.6638903
   1.9961673  40.1163833  58.8018903   2.0701673  40.6843833  58.1438903
   2.1171673  40.6083833  59.5118903   2.0241673  40.2733833  58.8098903
   7.2211673  49.9513833  57.2138903   7.9221673  49.4693833  57.4028903
   6.5611673  49.3823833  57.2588903   7.2271673  49.7963833  57.2478903
   5.7881673  40.2863833  64.6898903   5.6931673  40.6053833  65.4958903
   5.1951673  39.6473833  64.6518903   5.6861673  40.2383833  64.8038903
   6.4871673  47.0053833  62.8948903   5.9731673  46.5933833  63.4658903
   6.3611673  47.8493833  63.0758903   6.3931673  47.0693833  63.0058903
   7.0441673  36.2303833  57.5258903   7.0931673  35.9123833  58.3368903
   7.3671673  35.5863833  57.0328903   7.0991673  36.0883833  57.5728903
   9.5081673  40.4663833  65.8338903  10.2801673  40.2413833  66.1708903
   9.0331673  40.6833833  66.5338903   9.5521673  40.4653833  65.9868903
   9.7401673  47.4443833  53.0218903   9.8591673  47.1573833  53.8368903
  10.5471673  47.4653833  52.6918903   9.8761673  47.4053833  53.0938903
  11.9741673  51.9533833  67.2758903  11.2921673  52.2633833  66.8288903
  11.6051673  51.4953833  67.9208903  11.8181673  51.9313833  67.3048903
   7.6351673  43.9813833  52.6068903   7.4151673  44.7123833  52.1848903
   7.1871673  44.0323833  53.3538903   7.5361673  44.0963833  52.6548903
  11.8221673  38.8423833  52.0598903  11.1601673  38.2743833  52.0828903
  11.6291673  39.3543833  51.3798903  11.6961673  38.8343833  51.9628903
  12.1451673  43.2203833  64.6158903  12.3601673  42.4203833  64.3398903
  11.2951673  43.2803833  64.4268903  12.0511673  43.1113833  64.5468903
   9.8241673  38.4003833  54.3388903  10.5701673  37.9933833  54.5378903
  10.0871673  39.1153833  53.9138903   9.9731673  38.4463833  54.3058903
   3.7671673  50.8863833  58.9148903   3.2441673  51.5203833  58.6218903
   4.0771673  50.5223833  58.1858903   3.7351673  50.9263833  58.7638903
   6.2781673  40.6883833  59.4118903   6.6221673  40.8403833  60.1988903
   5.8251673  39.9503833  59.5248903   6.2621673  40.6013833  59.5448903
   9.8081673  52.3353833  65.3658903   9.1371673  52.8493833  65.5838903
   9.8711673  52.4353833  64.5018903   9.7181673  52.4263833  65.2708903
   7.5991673  42.0203833  61.9658903   6.9371673  42.3483833  62.4288903
   7.7861673  42.6543833  61.3968903   7.5291673  42.1623833  61.9498903
   4.2441673  37.9263833  65.3948903   4.3931673  37.1013833  65.1518903
   4.6231673  37.9813833  66.1788903   4.3221673  37.8123833  65.4748903
   5.7921673  39.9893833  55.4768903   6.2821673  40.7063833  55.3998903
   5.0021673  40.2503833  55.2138903   5.7481673  40.1333833  55.4268903
   7.1061673  47.8673833  67.3868903   7.5901673  48.5853833  67.4848903
   7.5001673  47.4403833  66.7358903   7.2361673  47.9103833  67.3048903
   2.3741673  41.4593833  61.2018903   2.8541673  42.1583833  61.4098903
   2.7471673  40.8123833  61.6528903   2.5001673  41.4673833  61.2988903
   4.5631673  44.6283833  53.4758903   4.5551673  45.3503833  52.9858903
   3.9241673  44.7633833  54.0528903   4.4681673  44.7553833  53.4888903
   9.5351673  48.4983833  57.4568903   9.8911673  48.1483833  58.1718903
   9.5271673  47.8373833  56.8868903   9.5871673  48.3483833  57.4778903
   5.5801673  51.5643833  61.3008903   4.9771673  51.2683833  60.7438903
   6.1251673  52.0163833  60.7918903   5.5711673  51.5873833  61.1428903
   5.5931673  48.4153833  60.7008903   4.7961673  48.6393833  60.9748903
   5.8511673  47.8213833  61.2858903   5.5131673  48.3603833  60.8278903
   1.7771673  52.7433833  53.5508903   2.3991673  52.9063833  54.1408903
   1.8131673  53.4343833  53.0188903   1.8741673  52.8693833  53.5598903
   8.8531673  46.4133833  65.5468903   8.9081673  46.5383833  64.6848903
   9.6061673  46.7333833  65.8488903   8.9721673  46.4783833  65.4638903
   5.0441673  51.7623833  69.8238903   5.2081673  52.0453833  70.6328903
   5.3071673  52.4233833  69.3188903   5.1071673  51.9023833  69.8688903
   9.8851673  36.7113833  68.5338903   9.2481673  36.3113833  68.0918903
   9.9111673  36.2803833  69.2918903   9.7951673  36.5893833  68.5798903
   4.5841673  46.2193833  65.1468903   4.4291673  46.8293833  65.7508903
   5.1181673  45.6613833  65.5528903   4.6401673  46.2273833  65.2958903
   2.9681673  44.6193833  55.8048903   3.0271673  45.2693833  56.3838903
   2.7791673  43.9233833  56.2958903   2.9491673  44.6123833  55.9628903
   8.1941673  48.9483833  61.6738903   7.7151673  49.2463833  61.0078903
   7.8381673  48.1723833  61.8518903   8.0711673  48.8773833  61.6018903
  11.8861673  53.1143833  53.6138903  12.5801673  52.6473833  53.3658903
  11.3471673  52.5163833  53.9508903  11.9091673  52.9563833  53.6268903
   9.1251673  45.8903833  62.7928903   9.1181673  45.1143833  63.1908903
   8.2841673  46.1243833  62.7858903   9.0001673  45.8103833  62.8508903
  10.3811673  45.9613833  60.2298903  10.0951673  46.3623833  60.9498903
  11.2411673  45.8993833  60.3568903  10.4661673  46.0113833  60.3548903
   8.0431673  39.8853833  68.7698903   7.5181673  40.3443833  69.2938903
   7.6821673  39.0903833  68.7638903   7.9121673  39.8353833  68.8458903
  11.5121673  51.5943833  60.7588903  11.8021673  51.8513833  59.9778903
  12.2071673  51.6903833  61.2778903  11.6581673  51.6463833  60.7198903
   6.5351673  43.4543833  68.8458903   6.6081673  43.5583833  69.7088903
   5.9011673  44.0123833  68.6248903   6.4521673  43.5523833  68.9408903
   8.8031673  43.7733833  67.2108903   9.1221673  44.5593833  67.4138903
   8.4331673  43.5033833  67.9538903   8.7961673  43.8493833  67.3508903
   8.1171673  50.1973833  52.7408903   8.4511673  49.3913833  52.7758903
   7.3621673  50.1253833  53.1708903   8.0551673  50.0673833  52.8098903
   8.5991673  42.0313833  58.3998903   7.8541673  41.7083833  58.7178903
   8.6011673  42.8573833  58.6798903   8.4891673  42.1053833  58.4878903
  11.5011673  44.3153833  69.9458903  11.4491673  43.9743833  69.1448903
  12.2381673  44.7823833  69.9238903  11.6021673  44.3343833  69.8238903
  11.0391673  47.9913833  66.1518903  11.6671673  47.4423833  65.8958903
  10.9781673  48.5563833  65.4898903  11.1231673  47.9943833  66.0158903
   5.4911673  48.0723833  52.1438903   6.1751673  47.5583833  51.9748903
   5.0741673  48.1183833  51.3788903   5.5301673  48.0033833  52.0058903
   7.5111673  38.3613833  65.8608903   8.2551673  38.8133833  65.7978903
   6.9451673  38.8313833  65.3918903   7.5381673  38.4983833  65.7828903
   2.6891673  45.6453833  62.9388903   3.1651673  46.0193833  63.5668903
   1.8661673  45.7793833  63.1978903   2.6381673  45.7203833  63.0698903
   8.7961673  36.3413833  63.5308903   8.5161673  37.1663833  63.4868903
   9.5121673  36.3943833  64.0268903   8.8611673  36.4713833  63.5978903
   4.4451673  47.9003833  68.5448903   5.2021673  48.1863833  68.2188903
   3.8981673  47.9523833  67.8668903   4.4761673  47.9503833  68.3958903
   8.3541673  50.4503833  67.0488903   8.7001673  50.7203833  67.8028903
   8.6481673  51.0323833  66.4688903   8.4491673  50.5763833  67.0748903
  10.2171673  42.5963833  52.3878903  10.5951673  43.2733833  51.9878903
   9.3751673  42.8203833  52.4188903  10.1481673  42.7293833  52.3328903
   5.6761673  41.2113833  67.2128903   5.0281673  41.6813833  67.5608903
   6.2411673  41.1223833  67.8718903   5.6641673  41.2673833  67.3618903
   5.3641673  42.7483833  63.5108903   5.6661673  43.1683833  64.2138903
   5.4001673  41.9083833  63.7428903   5.4141673  42.6863833  63.6488903
   2.7891673  52.9153833  67.4358903   3.2671673  52.3153833  67.0198903
   2.4381673  52.4723833  68.1008903   2.8081673  52.7613833  67.4728903
   7.9121673  42.1953833  55.7628903   8.1191673  41.9943833  56.5868903
   8.6681673  42.4633833  55.4208903   8.0541673  42.2053833  55.8338903
   8.9341673  38.2783833  57.2368903   8.2201673  37.8073833  57.4078903
   8.7721673  38.6193833  56.4508903   8.8051673  38.2593833  57.1458903
   9.3771673  46.2223833  55.6168903   9.8531673  45.4933833  55.5688903
   8.5561673  45.9363833  55.5408903   9.3261673  46.0723833  55.5978903
   2.8481673  48.1343833  66.4558903   2.0531673  48.0703833  66.8068903
   2.9191673  48.9813833  66.2608903   2.7411673  48.2493833  66.4788903
   5.5931673  47.3893833  57.9718903   5.6691673  47.7303833  58.7708903
   5.7621673  46.5423833  58.0928903   5.6291673  47.3143833  58.1078903
   3.1151673  46.6633833  57.5368903   2.8171673  46.3483833  58.2938903
   3.8101673  47.1363833  57.7718903   3.1741673  46.6863833  57.6838903
   3.3371673  50.7813833  65.5638903   4.0241673  50.6673833  66.0888903
   3.4711673  51.5723833  65.2198903   3.4581673  50.8813833  65.5908903
  11.5131673  43.3903833  67.3748903  10.6581673  43.2683833  67.5008903
  11.6661673  42.9953833  66.6118903  11.4091673  43.3133833  67.2808903
   6.0261673  44.0553833  65.9508903   5.7711673  43.3363833  66.3728903
   6.8471673  44.1713833  66.2208903   6.1101673  43.9663833  66.0528903
   3.9601673  45.2453833  69.1378903   4.2831673  45.9313833  68.7058903
   3.2561673  45.5683833  69.5398903   3.9031673  45.3943833  69.1328903
   7.0441673  53.6193833  60.0668903   6.5931673  54.2623833  60.4458903
   7.7521673  53.5403833  60.5718903   7.0821673  53.7023833  60.1978903
   3.7451673  48.7093833  62.9968903   3.0511673  49.1113833  63.3398903
   4.4221673  49.1423833  63.3358903   3.7421673  48.8323833  63.0978903
   9.1221673  51.3023833  69.5768903   9.8981673  50.9123833  69.6598903
   8.6531673  50.9663833  70.2318903   9.1671673  51.1953833  69.6858903
  10.1471673  43.3353833  55.0588903  10.2501673  43.2773833  54.1948903
  10.8881673  43.0033833  55.3768903  10.2721673  43.2783833  54.9778903
   4.0671673  50.3003833  56.1658903   3.8621673  51.1333833  56.0068903
   3.2921673  49.9183833  56.2878903   3.9221673  50.3673833  56.1608903
   9.2491673  43.4813833  64.4148903   9.2471673  42.6183833  64.5388903
   9.3161673  43.8053833  65.2218903   9.2591673  43.4013833  64.5518903
   5.1281673  38.2813833  68.1968903   5.2201673  38.9933833  68.6908903
   4.4911673  37.8363833  68.5938903   5.0471673  38.3203833  68.3288903
   4.1221673  38.4713833  59.0508903   3.4221673  38.9893833  58.9948903
   4.1601673  38.0913833  58.2668903   4.0241673  38.4923833  58.9268903
   7.7201673  38.9873833  61.8508903   8.5751673  39.0863833  61.9958903
   7.3511673  39.5403833  62.4158903   7.7921673  39.0843833  61.9558903
   8.0241673  44.2673833  60.3418903   8.6901673  44.8083833  60.5018903
   7.6791673  44.5783833  59.6028903   8.0711673  44.3933833  60.2568903
   8.3371673  52.3333833  56.1488903   8.1631673  51.6793833  56.6988903
   9.0501673  52.0623833  55.7258903   8.4171673  52.1963833  56.1678903
  11.1951673  36.8253833  65.0068903  11.1431673  36.7813833  65.8768903
  11.8821673  36.3223833  64.8168903  11.2891673  36.7453833  65.1068903
   3.2801673  38.9383833  62.0518903   2.5431673  38.4843833  62.1648903
   3.8511673  38.5363833  62.5748903   3.2551673  38.8113833  62.1458903
   6.0121673  49.7863833  63.8398903   6.2181673  50.0873833  64.6318903
   5.9511673  50.5083833  63.3548903   6.0331673  49.9373833  63.8848903
   5.5461673  54.0003833  68.0858903   4.7931673  53.9823833  67.6448903
   5.7141673  54.8523833  68.1698903   5.4601673  54.1233833  68.0328903
  10.8241673  48.4253833  63.2978903  10.7921673  47.5633833  63.1628903
  10.1311673  48.7273833  62.8638903  10.7171673  48.3423833  63.2138903
   8.9291673  51.6853833  62.0948903   9.4561673  51.6023833  61.4038903
   8.5381673  50.9073833  62.1488903   8.9491673  51.5583833  62.0008903
   5.4431673  37.1293833  61.3028903   6.1131673  37.6733833  61.4298903
   4.9401673  37.5533833  60.7298903   5.4681673  37.2723833  61.2368903
   4.8021673  42.9373833  58.7958903   5.3531673  42.3303833  59.0958903
   4.3771673  43.2003833  59.5108903   4.8211673  42.8863833  58.9448903
   6.7721673  44.7683833  55.3578903   6.8401673  43.9183833  55.5388903
   5.9491673  44.8543833  55.0798903   6.6601673  44.6553833  55.3438903
   9.8511673  53.7233833  51.7758903  10.4881673  53.5893833  52.3568903
   9.5101673  52.9293833  51.6588903   9.8951673  53.5863833  51.8438903
  10.0461673  46.1413833  68.5088903  10.6801673  45.9713833  69.0828903
  10.4631673  46.5443833  67.8568903  10.2011673  46.1763833  68.4978903
   5.9261673  49.9883833  54.0978903   5.6751673  49.8603833  54.9238903
   5.6091673  49.2933833  53.6768903   5.8421673  49.8673833  54.1578903
  10.6711673  40.7053833  69.2468903  10.4751673  41.3493833  69.8018903
   9.9491673  40.2153833  69.2388903  10.5361673  40.7283833  69.3278903
  10.5701673  41.6463833  62.2178903   9.7371673  41.8963833  62.1458903
  10.5141673  40.8063833  62.4468903  10.4391673  41.5593833  62.2408903
   7.4571673  46.2523833  69.8638903   8.3281673  46.2163833  69.8278903
   7.2381673  46.6723833  69.1318903   7.5541673  46.3083833  69.7508903
   2.8121673  48.1963833  53.5278903   3.5291673  47.8493833  53.1718903
   2.7781673  48.9963833  53.1798903   2.9131673  48.2633833  53.4238903
   4.2211673  36.8373833  37.7666493   3.9761673  37.3253833  37.0866493
   5.0841673  36.7643833  37.6666493   4.3121673  36.8983833  37.6516493
   4.0301673  43.7533833  42.4376493   3.5061673  44.3493833  42.8006493
   4.4271673  43.3853833  43.1216493   4.0111673  43.7873833  42.5926493
  10.1741673  51.1943833  35.4086493  10.8751673  50.6753833  35.4046493
   9.5871673  50.7493833  34.9396493  10.1911673  51.0513833  35.3386493
   6.7011673  44.8203833  39.1136493   6.7811673  44.8243833  38.2446493
   6.1171673  44.1883833  39.2626493   6.6261673  44.7273833  39.0076493
   3.5151673  42.8103833  48.5336493   2.6671673  42.7113833  48.3556493
   3.5441673  43.5553833  48.9876493   3.3941673  42.9063833  48.5746493
   8.0731673  35.7703833  47.6476493   7.9151673  36.5393833  47.2656493
   7.3011673  35.5503833  47.9916493   7.9351673  35.8513833  47.6426493
   5.5351673  40.4113833  32.1616493   5.0851673  41.0923833  32.4686493
   5.6491673  39.9073833  32.8646493   5.4861673  40.4373833  32.3106493
   5.6341673  52.7523833  34.2656493   6.3611673  53.2243833  34.3676493
   5.8631673  51.9583833  34.5456493   5.7761673  52.7053833  34.3226493
   3.8021673  53.1443833  36.2556493   4.0161673  53.6713833  36.9176493
   4.5691673  52.9703833  35.8766493   3.9471673  53.1963833  36.2976493
  10.9291673  40.3843833  38.4566493  10.5831673  41.0623833  38.8826493
  10.2931673  39.7863833  38.4726493  10.7841673  40.3963833  38.5216493
   6.2411673  53.1543833  44.5606493   6.9851673  53.6103833  44.5506493
   6.1201673  52.9403833  43.7236493   6.3331673  53.1903833  44.4356493
   2.4581673  37.1003833  49.3046493   2.6361673  36.2913833  49.0296493
   2.3151673  37.5413833  48.5656493   2.4631673  37.0463833  49.1546493
   3.0521673  42.0263833  38.0776493   3.3391673  41.7943833  37.2876493
   3.7841673  42.1053833  38.5466493   3.2021673  42.0033833  38.0306493
   3.7741673  42.3653833  33.1986493   4.0551673  43.1533833  33.4476493
   2.9981673  42.5303833  32.8356493   3.7011673  42.5063833  33.1816493
   7.8151673  54.3393833  34.6656493   8.4801673  54.1913833  34.1206493
   8.1751673  54.2563833  35.4556493   7.9671673  54.3053833  34.7016493
  10.6041673  38.7073833  43.8256493  11.3611673  38.7793833  43.3976493
  10.6671673  37.9343833  44.2246493  10.7251673  38.6043833  43.8206493
   5.4951673  50.3393833  48.2646493   5.4611673  50.7213833  49.0486493
   6.3491673  50.2973833  48.0936493   5.6161673  50.3893833  48.3556493
   2.6331673  50.5363833  33.0146493   2.4521673  51.0813833  33.6716493
   3.3991673  50.8263833  32.7136493   2.7191673  50.6603833  33.0676493
   6.1401673  38.4323833  34.0686493   6.6801673  37.7503833  34.1446493
   6.2021673  38.8303833  34.8426493   6.2291673  38.3903833  34.1946493
   3.3981673  40.8083833  35.3826493   2.8901673  40.1463833  35.1286493
   3.4501673  41.3123833  34.6726493   3.3311673  40.7853833  35.2406493
   3.9471673  53.5033833  45.7626493   4.7151673  53.4233833  45.3566493
   3.3641673  53.3823833  45.1246493   3.9741673  53.4733833  45.6086493
   3.3981673  37.7493833  35.2736493   2.9431673  37.3473833  34.6476493
   4.1711673  37.9043833  34.8986493   3.4451673  37.7133833  35.1256493
  10.2241673  54.1063833  38.6636493   9.7691673  54.8233833  38.8646493
   9.6101673  53.5353833  38.4216493  10.0661673  54.1283833  38.6576493
   1.9961673  40.1163833  39.7956493   2.0701673  40.6843833  39.1376493
   2.1171673  40.6083833  40.5056493   2.0241673  40.2733833  39.8036493
   7.2211673  49.9513833  38.2076493   7.9221673  49.4693833  38.3966493
   6.5611673  49.3823833  38.2526493   7.2271673  49.7963833  38.2416493
   5.7881673  40.2863833  45.6836493   5.6931673  40.6053833  46.4896493
   5.1951673  39.6473833  45.6456493   5.6861673  40.2383833  45.7976493
   6.4871673  47.0053833  43.8886493   5.9731673  46.5933833  44.4596493
   6.3611673  47.8493833  44.0696493   6.3931673  47.0693833  43.9996493
   7.0441673  36.2303833  38.5196493   7.0931673  35.9123833  39.3306493
   7.3671673  35.5863833  38.0266493   7.0991673  36.0883833  38.5666493
   9.5081673  40.4663833  46.8276493  10.2801673  40.2413833  47.1646493
   9.0331673  40.6833833  47.5276493   9.5521673  40.4653833  46.9806493
   9.7401673  47.4443833  34.0156493   9.8591673  47.1573833  34.8306493
  10.5471673  47.4653833  33.6856493   9.8761673  47.4053833  34.0876493
  11.9741673  51.9533833  48.2696493  11.2921673  52.2633833  47.8226493
  11.6051673  51.4953833  48.9146493  11.8181673  51.9313833  48.2986493
   7.6351673  43.9813833  33.6006493   7.4151673  44.7123833  33.1786493
   7.1871673  44.0323833  34.3476493   7.5361673  44.0963833  33.6486493
  11.8221673  38.8423833  33.0536493  11.1601673  38.2743833  33.0766493
  11.6291673  39.3543833  32.3736493  11.6961673  38.8343833  32.9566493
   9.8241673  38.4003833  35.3326493  10.5701673  37.9933833  35.5316493
  10.0871673  39.1153833  34.9076493   9.9731673  38.4463833  35.2996493
   3.7671673  50.8863833  39.9086493   3.2441673  51.5203833  39.6156493
   4.0771673  50.5223833  39.1796493   3.7351673  50.9263833  39.7576493
   6.2781673  40.6883833  40.4056493   6.6221673  40.8403833  41.1926493
   5.8251673  39.9503833  40.5186493   6.2621673  40.6013833  40.5386493
   9.8081673  52.3353833  46.3596493   9.1371673  52.8493833  46.5776493
   9.8711673  52.4353833  45.4956493   9.7181673  52.4263833  46.2646493
   7.5991673  42.0203833  42.9596493   6.9371673  42.3483833  43.4226493
   7.7861673  42.6543833  42.3906493   7.5291673  42.1623833  42.9436493
   4.2441673  37.9263833  46.3886493   4.3931673  37.1013833  46.1456493
   4.6231673  37.9813833  47.1726493   4.3221673  37.8123833  46.4686493
   5.7921673  39.9893833  36.4706493   6.2821673  40.7063833  36.3936493
   5.0021673  40.2503833  36.2076493   5.7481673  40.1333833  36.4206493
   7.1061673  47.8673833  48.3806493   7.5901673  48.5853833  48.4786493
   7.5001673  47.4403833  47.7296493   7.2361673  47.9103833  48.2986493
   2.3741673  41.4593833  42.1956493   2.8541673  42.1583833  42.4036493
   2.7471673  40.8123833  42.6466493   2.5001673  41.4673833  42.2926493
   4.5631673  44.6283833  34.4696493   4.5551673  45.3503833  33.9796493
   3.9241673  44.7633833  35.0466493   4.4681673  44.7553833  34.4826493
   9.5351673  48.4983833  38.4506493   9.8911673  48.1483833  39.1656493
   9.5271673  47.8373833  37.8806493   9.5871673  48.3483833  38.4716493
   5.5801673  51.5643833  42.2946493   4.9771673  51.2683833  41.7376493
   6.1251673  52.0163833  41.7856493   5.5711673  51.5873833  42.1366493
   5.5931673  48.4153833  41.6946493   4.7961673  48.6393833  41.9686493
   5.8511673  47.8213833  42.2796493   5.5131673  48.3603833  41.8216493
   1.7771673  52.7433833  34.5446493   2.3991673  52.9063833  35.1346493
   1.8131673  53.4343833  34.0126493   1.8741673  52.8693833  34.5536493
   8.8531673  46.4133833  46.5406493   8.9081673  46.5383833  45.6786493
   9.6061673  46.7333833  46.8426493   8.9721673  46.4783833  46.4576493
   5.0441673  51.7623833  50.8176493   5.2081673  52.0453833  51.6266493
   5.3071673  52.4233833  50.3126493   5.1071673  51.9023833  50.8626493
   9.8851673  36.7113833  49.5276493   9.2481673  36.3113833  49.0856493
   9.9111673  36.2803833  50.2856493   9.7951673  36.5893833  49.5736493
   4.5841673  46.2193833  46.1406493   4.4291673  46.8293833  46.7446493
   5.1181673  45.6613833  46.5466493   4.6401673  46.2273833  46.2896493
   2.9681673  44.6193833  36.7986493   3.0271673  45.2693833  37.3776493
   2.7791673  43.9233833  37.2896493   2.9491673  44.6123833  36.9566493
   8.1941673  48.9483833  42.6676493   7.7151673  49.2463833  42.0016493
   7.8381673  48.1723833  42.8456493   8.0711673  48.8773833  42.5956493
  11.8861673  53.1143833  34.6076493  12.5801673  52.6473833  34.3596493
  11.3471673  52.5163833  34.9446493  11.9091673  52.9563833  34.6206493
   9.1251673  45.8903833  43.7866493   9.1181673  45.1143833  44.1846493
   8.2841673  46.1243833  43.7796493   9.0001673  45.8103833  43.8446493
  10.3811673  45.9613833  41.2236493  10.0951673  46.3623833  41.9436493
  11.2411673  45.8993833  41.3506493  10.4661673  46.0113833  41.3486493
   8.0431673  39.8853833  49.7636493   7.5181673  40.3443833  50.2876493
   7.6821673  39.0903833  49.7576493   7.9121673  39.8353833  49.8396493
  11.5121673  51.5943833  41.7526493  11.8021673  51.8513833  40.9716493
  12.2071673  51.6903833  42.2716493  11.6581673  51.6463833  41.7136493
   6.5351673  43.4543833  49.8396493   6.6081673  43.5583833  50.7026493
   5.9011673  44.0123833  49.6186493   6.4521673  43.5523833  49.9346493
   8.8031673  43.7733833  48.2046493   9.1221673  44.5593833  48.4076493
   8.4331673  43.5033833  48.9476493   8.7961673  43.8493833  48.3446493
   8.1171673  50.1973833  33.7346493   8.4511673  49.3913833  33.7696493
   7.3621673  50.1253833  34.1646493   8.0551673  50.0673833  33.8036493
   8.5991673  42.0313833  39.3936493   7.8541673  41.7083833  39.7116493
   8.6011673  42.8573833  39.6736493   8.4891673  42.1053833  39.4816493
  11.5011673  44.3153833  50.9396493  11.4491673  43.9743833  50.1386493
  12.2381673  44.7823833  50.9176493  11.6021673  44.3343833  50.8176493
  11.0391673  47.9913833  47.1456493  11.6671673  47.4423833  46.8896493
  10.9781673  48.5563833  46.4836493  11.1231673  47.9943833  47.0096493
   5.4911673  48.0723833  33.1376493   6.1751673  47.5583833  32.9686493
   5.0741673  48.1183833  32.3726493   5.5301673  48.0033833  32.9996493
   7.5111673  38.3613833  46.8546493   8.2551673  38.8133833  46.7916493
   6.9451673  38.8313833  46.3856493   7.5381673  38.4983833  46.7766493
   2.6891673  45.6453833  43.9326493   3.1651673  46.0193833  44.5606493
   1.8661673  45.7793833  44.1916493   2.6381673  45.7203833  44.0636493
   8.7961673  36.3413833  44.5246493   8.5161673  37.1663833  44.4806493
   9.5121673  36.3943833  45.0206493   8.8611673  36.4713833  44.5916493
   4.4451673  47.9003833  49.5386493   5.2021673  48.1863833  49.2126493
   3.8981673  47.9523833  48.8606493   4.4761673  47.9503833  49.3896493
   8.3541673  50.4503833  48.0426493   8.7001673  50.7203833  48.7966493
   8.6481673  51.0323833  47.4626493   8.4491673  50.5763833  48.0686493
  10.2171673  42.5963833  33.3816493  10.5951673  43.2733833  32.9816493
   9.3751673  42.8203833  33.4126493  10.1481673  42.7293833  33.3266493
   5.6761673  41.2113833  48.2066493   5.0281673  41.6813833  48.5546493
   6.2411673  41.1223833  48.8656493   5.6641673  41.2673833  48.3556493
   5.3641673  42.7483833  44.5046493   5.6661673  43.1683833  45.2076493
   5.4001673  41.9083833  44.7366493   5.4141673  42.6863833  44.6426493
   2.7891673  52.9153833  48.4296493   3.2671673  52.3153833  48.0136493
   2.4381673  52.4723833  49.0946493   2.8081673  52.7613833  48.4666493
   7.9121673  42.1953833  36.7566493   8.1191673  41.9943833  37.5806493
   8.6681673  42.4633833  36.4146493   8.0541673  42.2053833  36.8276493
   8.9341673  38.2783833  38.2306493   8.2201673  37.8073833  38.4016493
   8.7721673  38.6193833  37.4446493   8.8051673  38.2593833  38.1396493
   9.3771673  46.2223833  36.6106493   9.8531673  45.4933833  36.5626493
   8.5561673  45.9363833  36.5346493   9.3261673  46.0723833  36.5916493
   2.8481673  48.1343833  47.4496493   2.0531673  48.0703833  47.8006493
   2.9191673  48.9813833  47.2546493   2.7411673  48.2493833  47.4726493
   5.5931673  47.3893833  38.9656493   5.6691673  47.7303833  39.7646493
   5.7621673  46.5423833  39.0866493   5.6291673  47.3143833  39.1016493
   3.1151673  46.6633833  38.5306493   2.8171673  46.3483833  39.2876493
   3.8101673  47.1363833  38.7656493   3.1741673  46.6863833  38.6776493
   3.3371673  50.7813833  46.5576493   4.0241673  50.6673833  47.0826493
   3.4711673  51.5723833  46.2136493   3.4581673  50.8813833  46.5846493
  11.5131673  43.3903833  48.3686493  10.6581673  43.2683833  48.4946493
  11.6661673  42.9953833  47.6056493  11.4091673  43.3133833  48.2746493
   6.0261673  44.0553833  46.9446493   5.7711673  43.3363833  47.3666493
   6.8471673  44.1713833  47.2146493   6.1101673  43.9663833  47.0466493
   3.9601673  45.2453833  50.1316493   4.2831673  45.9313833  49.6996493
   3.2561673  45.5683833  50.5336493   3.9031673  45.3943833  50.1266493
   7.0441673  53.6193833  41.0606493   6.5931673  54.2623833  41.4396493
   7.7521673  53.5403833  41.5656493   7.0821673  53.7023833  41.1916493
   3.7451673  48.7093833  43.9906493   3.0511673  49.1113833  44.3336493
   4.4221673  49.1423833  44.3296493   3.7421673  48.8323833  44.0916493
   9.1221673  51.3023833  50.5706493   9.8981673  50.9123833  50.6536493
   8.6531673  50.9663833  51.2256493   9.1671673  51.1953833  50.6796493
  10.1471673  43.3353833  36.0526493  10.2501673  43.2773833  35.1886493
  10.8881673  43.0033833  36.3706493  10.2721673  43.2783833  35.9716493
   4.0671673  50.3003833  37.1596493   3.8621673  51.1333833  37.0006493
   3.2921673  49.9183833  37.2816493   3.9221673  50.3673833  37.1546493
   9.2491673  43.4813833  45.4086493   9.2471673  42.6183833  45.5326493
   9.3161673  43.8053833  46.2156493   9.2591673  43.4013833  45.5456493
   5.1281673  38.2813833  49.1906493   5.2201673  38.9933833  49.6846493
   4.4911673  37.8363833  49.5876493   5.0471673  38.3203833  49.3226493
   4.1221673  38.4713833  40.0446493   3.4221673  38.9893833  39.9886493
   4.1601673  38.0913833  39.2606493   4.0241673  38.4923833  39.9206493
   7.7201673  38.9873833  42.8446493   8.5751673  39.0863833  42.9896493
   7.3511673  39.5403833  43.4096493   7.7921673  39.0843833  42.9496493
   8.0241673  44.2673833  41.3356493   8.6901673  44.8083833  41.4956493
   7.6791673  44.5783833  40.5966493   8.0711673  44.3933833  41.2506493
   8.3371673  52.3333833  37.1426493   8.1631673  51.6793833  37.6926493
   9.0501673  52.0623833  36.7196493   8.4171673  52.1963833  37.1616493
  11.1951673  36.8253833  46.0006493  11.1431673  36.7813833  46.8706493
  11.8821673  36.3223833  45.8106493  11.2891673  36.7453833  46.1006493
   3.2801673  38.9383833  43.0456493   2.5431673  38.4843833  43.1586493
   3.8511673  38.5363833  43.5686493   3.2551673  38.8113833  43.1396493
   6.0121673  49.7863833  44.8336493   6.2181673  50.0873833  45.6256493
   5.9511673  50.5083833  44.3486493   6.0331673  49.9373833  44.8786493
   5.5461673  54.0003833  49.0796493   4.7931673  53.9823833  48.6386493
   5.7141673  54.8523833  49.1636493   5.4601673  54.1233833  49.0266493
   8.9291673  51.6853833  43.0886493   9.4561673  51.6023833  42.3976493
   8.5381673  50.9073833  43.1426493   8.9491673  51.5583833  42.9946493
   5.4431673  37.1293833  42.2966493   6.1131673  37.6733833  42.4236493
   4.9401673  37.5533833  41.7236493   5.4681673  37.2723833  42.2306493
   4.8021673  42.9373833  39.7896493   5.3531673  42.3303833  40.0896493
   4.3771673  43.2003833  40.5046493   4.8211673  42.8863833  39.9386493
   6.7721673  44.7683833  36.3516493   6.8401673  43.9183833  36.5326493
   5.9491673  44.8543833  36.0736493   6.6601673  44.6553833  36.3376493
   9.8511673  53.7233833  32.7696493  10.4881673  53.5893833  33.3506493
   9.5101673  52.9293833  32.6526493   9.8951673  53.5863833  32.8376493
  10.0461673  46.1413833  49.5026493  10.6801673  45.9713833  50.0766493
  10.4631673  46.5443833  48.8506493  10.2011673  46.1763833  49.4916493
   5.9261673  49.9883833  35.0916493   5.6751673  49.8603833  35.9176493
   5.6091673  49.2933833  34.6706493   5.8421673  49.8673833  35.1516493
  10.6711673  40.7053833  50.2406493  10.4751673  41.3493833  50.7956493
   9.9491673  40.2153833  50.2326493  10.5361673  40.7283833  50.3216493
  10.5701673  41.6463833  43.2116493   9.7371673  41.8963833  43.1396493
  10.5141673  40.8063833  43.4406493  10.4391673  41.5593833  43.2346493
   7.4571673  46.2523833  50.8576493   8.3281673  46.2163833  50.8216493
   7.2381673  46.6723833  50.1256493   7.5541673  46.3083833  50.7446493
   2.8121673  48.1963833  34.5216493   3.5291673  47.8493833  34.1656493
   2.7781673  48.9963833  34.1736493   2.9131673  48.2633833  34.4176493
   4.2211673  36.8373833  18.7604083   3.9761673  37.3253833  18.0804083
   5.0841673  36.7643833  18.6604083   4.3121673  36.8983833  18.6454083
   4.0301673  43.7533833  23.4314083   3.5061673  44.3493833  23.7944083
   4.4271673  43.3853833  24.1154083   4.0111673  43.7873833  23.5864083
  10.1741673  51.1943833  16.4024083  10.8751673  50.6753833  16.3984083
   9.5871673  50.7493833  15.9334083  10.1911673  51.0513833  16.3324083
   6.7011673  44.8203833  20.1074083   6.7811673  44.8243833  19.2384083
   6.1171673  44.1883833  20.2564083   6.6261673  44.7273833  20.0014083
   3.5151673  42.8103833  29.5274083   2.6671673  42.7113833  29.3494083
   3.5441673  43.5553833  29.9814083   3.3941673  42.9063833  29.5684083
   8.0731673  35.7703833  28.6414083   7.9151673  36.5393833  28.2594083
   7.3011673  35.5503833  28.9854083   7.9351673  35.8513833  28.6364083
   5.5351673  40.4113833  13.1554083   5.0851673  41.0923833  13.4624083
   5.6491673  39.9073833  13.8584083   5.4861673  40.4373833  13.3044083
   5.6341673  52.7523833  15.2594083   6.3611673  53.2243833  15.3614083
   5.8631673  51.9583833  15.5394083   5.7761673  52.7053833  15.3164083
   3.8021673  53.1443833  17.2494083   4.0161673  53.6713833  17.9114083
   4.5691673  52.9703833  16.8704083   3.9471673  53.1963833  17.2914083
  10.9291673  40.3843833  19.4504083  10.5831673  41.0623833  19.8764083
  10.2931673  39.7863833  19.4664083  10.7841673  40.3963833  19.5154083
   6.2411673  53.1543833  25.5544083   6.9851673  53.6103833  25.5444083
   6.1201673  52.9403833  24.7174083   6.3331673  53.1903833  25.4294083
   2.4581673  37.1003833  30.2984083   2.6361673  36.2913833  30.0234083
   2.3151673  37.5413833  29.5594083   2.4631673  37.0463833  30.1484083
   3.0521673  42.0263833  19.0714083   3.3391673  41.7943833  18.2814083
   3.7841673  42.1053833  19.5404083   3.2021673  42.0033833  19.0244083
   3.7741673  42.3653833  14.1924083   4.0551673  43.1533833  14.4414083
   2.9981673  42.5303833  13.8294083   3.7011673  42.5063833  14.1754083
   7.8151673  54.3393833  15.6594083   8.4801673  54.1913833  15.1144083
   8.1751673  54.2563833  16.4494083   7.9671673  54.3053833  15.6954083
  10.6041673  38.7073833  24.8194083  11.3611673  38.7793833  24.3914083
  10.6671673  37.9343833  25.2184083  10.7251673  38.6043833  24.8144083
   5.4951673  50.3393833  29.2584083   5.4611673  50.7213833  30.0424083
   6.3491673  50.2973833  29.0874083   5.6161673  50.3893833  29.3494083
   2.6331673  50.5363833  14.0084083   2.4521673  51.0813833  14.6654083
   3.3991673  50.8263833  13.7074083   2.7191673  50.6603833  14.0614083
   6.1401673  38.4323833  15.0624083   6.6801673  37.7503833  15.1384083
   6.2021673  38.8303833  15.8364083   6.2291673  38.3903833  15.1884083
   3.3981673  40.8083833  16.3764083   2.8901673  40.1463833  16.1224083
   3.4501673  41.3123833  15.6664083   3.3311673  40.7853833  16.2344083
   3.9471673  53.5033833  26.7564083   4.7151673  53.4233833  26.3504083
   3.3641673  53.3823833  26.1184083   3.9741673  53.4733833  26.6024083
   3.3981673  37.7493833  16.2674083   2.9431673  37.3473833  15.6414083
   4.1711673  37.9043833  15.8924083   3.4451673  37.7133833  16.1194083
  10.2241673  54.1063833  19.6574083   9.7691673  54.8233833  19.8584083
   9.6101673  53.5353833  19.4154083  10.0661673  54.1283833  19.6514083
   1.9961673  40.1163833  20.7894083   2.0701673  40.6843833  20.1314083
   2.1171673  40.6083833  21.4994083   2.0241673  40.2733833  20.7974083
   7.2211673  49.9513833  19.2014083   7.9221673  49.4693833  19.3904083
   6.5611673  49.3823833  19.2464083   7.2271673  49.7963833  19.2354083
   5.7881673  40.2863833  26.6774083   5.6931673  40.6053833  27.4834083
   5.1951673  39.6473833  26.6394083   5.6861673  40.2383833  26.7914083
   6.4871673  47.0053833  24.8824083   5.9731673  46.5933833  25.4534083
   6.3611673  47.8493833  25.0634083   6.3931673  47.0693833  24.9934083
   7.0441673  36.2303833  19.5134083   7.0931673  35.9123833  20.3244083
   7.3671673  35.5863833  19.0204083   7.0991673  36.0883833  19.5604083
   9.5081673  40.4663833  27.8214083  10.2801673  40.2413833  28.1584083
   9.0331673  40.6833833  28.5214083   9.5521673  40.4653833  27.9744083
   9.7401673  47.4443833  15.0094083   9.8591673  47.1573833  15.8244083
  10.5471673  47.4653833  14.6794083   9.8761673  47.4053833  15.0814083
  11.9741673  51.9533833  29.2634083  11.2921673  52.2633833  28.8164083
  11.6051673  51.4953833  29.9084083  11.8181673  51.9313833  29.2924083
   7.6351673  43.9813833  14.5944083   7.4151673  44.7123833  14.1724083
   7.1871673  44.0323833  15.3414083   7.5361673  44.0963833  14.6424083
  11.8221673  38.8423833  14.0474083  11.1601673  38.2743833  14.0704083
  11.6291673  39.3543833  13.3674083  11.6961673  38.8343833  13.9504083
  12.1451673  43.2203833  26.6034083  12.3601673  42.4203833  26.3274083
  11.2951673  43.2803833  26.4144083  12.0511673  43.1113833  26.5344083
   9.8241673  38.4003833  16.3264083  10.5701673  37.9933833  16.5254083
  10.0871673  39.1153833  15.9014083   9.9731673  38.4463833  16.2934083
   3.7671673  50.8863833  20.9024083   3.2441673  51.5203833  20.6094083
   4.0771673  50.5223833  20.1734083   3.7351673  50.9263833  20.7514083
   6.2781673  40.6883833  21.3994083   6.6221673  40.8403833  22.1864083
   5.8251673  39.9503833  21.5124083   6.2621673  40.6013833  21.5324083
   9.8081673  52.3353833  27.3534083   9.1371673  52.8493833  27.5714083
   9.8711673  52.4353833  26.4894083   9.7181673  52.4263833  27.2584083
   7.5991673  42.0203833  23.9534083   6.9371673  42.3483833  24.4164083
   7.7861673  42.6543833  23.3844083   7.5291673  42.1623833  23.9374083
   4.2441673  37.9263833  27.3824083   4.3931673  37.1013833  27.1394083
   4.6231673  37.9813833  28.1664083   4.3221673  37.8123833  27.4624083
   5.7921673  39.9893833  17.4644083   6.2821673  40.7063833  17.3874083
   5.0021673  40.2503833  17.2014083   5.7481673  40.1333833  17.4144083
   7.1061673  47.8673833  29.3744083   7.5901673  48.5853833  29.4724083
   7.5001673  47.4403833  28.7234083   7.2361673  47.9103833  29.2924083
   2.3741673  41.4593833  23.1894083   2.8541673  42.1583833  23.3974083
   2.7471673  40.8123833  23.6404083   2.5001673  41.4673833  23.2864083
   4.5631673  44.6283833  15.4634083   4.5551673  45.3503833  14.9734083
   3.9241673  44.7633833  16.0404083   4.4681673  44.7553833  15.4764083
   9.5351673  48.4983833  19.4444083   9.8911673  48.1483833  20.1594083
   9.5271673  47.8373833  18.8744083   9.5871673  48.3483833  19.4654083
   5.5801673  51.5643833  23.2884083   4.9771673  51.2683833  22.7314083
   6.1251673  52.0163833  22.7794083   5.5711673  51.5873833  23.1304083
   5.5931673  48.4153833  22.6884083   4.7961673  48.6393833  22.9624083
   5.8511673  47.8213833  23.2734083   5.5131673  48.3603833  22.8154083
   1.7771673  52.7433833  15.5384083   2.3991673  52.9063833  16.1284083
   1.8131673  53.4343833  15.0064083   1.8741673  52.8693833  15.5474083
   8.8531673  46.4133833  27.5344083   8.9081673  46.5383833  26.6724083
   9.6061673  46.7333833  27.8364083   8.9721673  46.4783833  27.4514083
   5.0441673  51.7623833  31.8114083   5.2081673  52.0453833  32.6204083
   5.3071673  52.4233833  31.3064083   5.1071673  51.9023833  31.8564083
   9.8851673  36.7113833  30.5214083   9.2481673  36.3113833  30.0794083
   9.9111673  36.2803833  31.2794083   9.7951673  36.5893833  30.5674083
   4.5841673  46.2193833  27.1344083   4.4291673  46.8293833  27.7384083
   5.1181673  45.6613833  27.5404083   4.6401673  46.2273833  27.2834083
   2.9681673  44.6193833  17.7924083   3.0271673  45.2693833  18.3714083
   2.7791673  43.9233833  18.2834083   2.9491673  44.6123833  17.9504083
   8.1941673  48.9483833  23.6614083   7.7151673  49.2463833  22.9954083
   7.8381673  48.1723833  23.8394083   8.0711673  48.8773833  23.5894083
  11.8861673  53.1143833  15.6014083  12.5801673  52.6473833  15.3534083
  11.3471673  52.5163833  15.9384083  11.9091673  52.9563833  15.6144083
   9.1251673  45.8903833  24.7804083   9.1181673  45.1143833  25.1784083
   8.2841673  46.1243833  24.7734083   9.0001673  45.8103833  24.8384083
  10.3811673  45.9613833  22.2174083  10.0951673  46.3623833  22.9374083
  11.2411673  45.8993833  22.3444083  10.4661673  46.0113833  22.3424083
   8.0431673  39.8853833  30.7574083   7.5181673  40.3443833  31.2814083
   7.6821673  39.0903833  30.7514083   7.9121673  39.8353833  30.8334083
  11.5121673  51.5943833  22.7464083  11.8021673  51.8513833  21.9654083
  12.2071673  51.6903833  23.2654083  11.6581673  51.6463833  22.7074083
   6.5351673  43.4543833  30.8334083   6.6081673  43.5583833  31.6964083
   5.9011673  44.0123833  30.6124083   6.4521673  43.5523833  30.9284083
   8.8031673  43.7733833  29.1984083   9.1221673  44.5593833  29.4014083
   8.4331673  43.5033833  29.9414083   8.7961673  43.8493833  29.3384083
   8.1171673  50.1973833  14.7284083   8.4511673  49.3913833  14.7634083
   7.3621673  50.1253833  15.1584083   8.0551673  50.0673833  14.7974083
   8.5991673  42.0313833  20.3874083   7.8541673  41.7083833  20.7054083
   8.6011673  42.8573833  20.6674083   8.4891673  42.1053833  20.4754083
  11.5011673  44.3153833  31.9334083  11.4491673  43.9743833  31.1324083
  12.2381673  44.7823833  31.9114083  11.6021673  44.3343833  31.8114083
  11.0391673  47.9913833  28.1394083  11.6671673  47.4423833  27.8834083
  10.9781673  48.5563833  27.4774083  11.1231673  47.9943833  28.0034083
   5.4911673  48.0723833  14.1314083   6.1751673  47.5583833  13.9624083
   5.0741673  48.1183833  13.3664083   5.5301673  48.0033833  13.9934083
   7.5111673  38.3613833  27.8484083   8.2551673  38.8133833  27.7854083
   6.9451673  38.8313833  27.3794083   7.5381673  38.4983833  27.7704083
   2.6891673  45.6453833  24.9264083   3.1651673  46.0193833  25.5544083
   1.8661673  45.7793833  25.1854083   2.6381673  45.7203833  25.0574083
   8.7961673  36.3413833  25.5184083   8.5161673  37.1663833  25.4744083
   9.5121673  36.3943833  26.0144083   8.8611673  36.4713833  25.5854083
   4.4451673  47.9003833  30.5324083   5.2021673  48.1863833  30.2064083
   3.8981673  47.9523833  29.8544083   4.4761673  47.9503833  30.3834083
   8.3541673  50.4503833  29.0364083   8.7001673  50.7203833  29.7904083
   8.6481673  51.0323833  28.4564083   8.4491673  50.5763833  29.0624083
  10.2171673  42.5963833  14.3754083  10.5951673  43.2733833  13.9754083
   9.3751673  42.8203833  14.4064083  10.1481673  42.7293833  14.3204083
   5.6761673  41.2113833  29.2004083   5.0281673  41.6813833  29.5484083
   6.2411673  41.1223833  29.8594083   5.6641673  41.2673833  29.3494083
   5.3641673  42.7483833  25.4984083   5.6661673  43.1683833  26.2014083
   5.4001673  41.9083833  25.7304083   5.4141673  42.6863833  25.6364083
   2.7891673  52.9153833  29.4234083   3.2671673  52.3153833  29.0074083
   2.4381673  52.4723833  30.0884083   2.8081673  52.7613833  29.4604083
   7.9121673  42.1953833  17.7504083   8.1191673  41.9943833  18.5744083
   8.6681673  42.4633833  17.4084083   8.0541673  42.2053833  17.8214083
   8.9341673  38.2783833  19.2244083   8.2201673  37.8073833  19.3954083
   8.7721673  38.6193833  18.4384083   8.8051673  38.2593833  19.1334083
   9.3771673  46.2223833  17.6044083   9.8531673  45.4933833  17.5564083
   8.5561673  45.9363833  17.5284083   9.3261673  46.0723833  17.5854083
   2.8481673  48.1343833  28.4434083   2.0531673  48.0703833  28.7944083
   2.9191673  48.9813833  28.2484083   2.7411673  48.2493833  28.4664083
   5.5931673  47.3893833  19.9594083   5.6691673  47.7303833  20.7584083
   5.7621673  46.5423833  20.0804083   5.6291673  47.3143833  20.0954083
   3.1151673  46.6633833  19.5244083   2.8171673  46.3483833  20.2814083
   3.8101673  47.1363833  19.7594083   3.1741673  46.6863833  19.6714083
   3.3371673  50.7813833  27.5514083   4.0241673  50.6673833  28.0764083
   3.4711673  51.5723833  27.2074083   3.4581673  50.8813833  27.5784083
  11.5131673  43.3903833  29.3624083  10.6581673  43.2683833  29.4884083
  11.6661673  42.9953833  28.5994083  11.4091673  43.3133833  29.2684083
   6.0261673  44.0553833  27.9384083   5.7711673  43.3363833  28.3604083
   6.8471673  44.1713833  28.2084083   6.1101673  43.9663833  28.0404083
   3.9601673  45.2453833  31.1254083   4.2831673  45.9313833  30.6934083
   3.2561673  45.5683833  31.5274083   3.9031673  45.3943833  31.1204083
   7.0441673  53.6193833  22.0544083   6.5931673  54.2623833  22.4334083
   7.7521673  53.5403833  22.5594083   7.0821673  53.7023833  22.1854083
   3.7451673  48.7093833  24.9844083   3.0511673  49.1113833  25.3274083
   4.4221673  49.1423833  25.3234083   3.7421673  48.8323833  25.0854083
   9.1221673  51.3023833  31.5644083   9.8981673  50.9123833  31.6474083
   8.6531673  50.9663833  32.2194083   9.1671673  51.1953833  31.6734083
  10.1471673  43.3353833  17.0464083  10.2501673  43.2773833  16.1824083
  10.8881673  43.0033833  17.3644083  10.2721673  43.2783833  16.9654083
   4.0671673  50.3003833  18.1534083   3.8621673  51.1333833  17.9944083
   3.2921673  49.9183833  18.2754083   3.9221673  50.3673833  18.1484083
   9.2491673  43.4813833  26.4024083   9.2471673  42.6183833  26.5264083
   9.3161673  43.8053833  27.2094083   9.2591673  43.4013833  26.5394083
   5.1281673  38.2813833  30.1844083   5.2201673  38.9933833  30.6784083
   4.4911673  37.8363833  30.5814083   5.0471673  38.3203833  30.3164083
   4.1221673  38.4713833  21.0384083   3.4221673  38.9893833  20.9824083
   4.1601673  38.0913833  20.2544083   4.0241673  38.4923833  20.9144083
   7.7201673  38.9873833  23.8384083   8.5751673  39.0863833  23.9834083
   7.3511673  39.5403833  24.4034083   7.7921673  39.0843833  23.9434083
   8.0241673  44.2673833  22.3294083   8.6901673  44.8083833  22.4894083
   7.6791673  44.5783833  21.5904083   8.0711673  44.3933833  22.2444083
   8.3371673  52.3333833  18.1364083   8.1631673  51.6793833  18.6864083
   9.0501673  52.0623833  17.7134083   8.4171673  52.1963833  18.1554083
  11.1951673  36.8253833  26.9944083  11.1431673  36.7813833  27.8644083
  11.8821673  36.3223833  26.8044083  11.2891673  36.7453833  27.0944083
   3.2801673  38.9383833  24.0394083   2.5431673  38.4843833  24.1524083
   3.8511673  38.5363833  24.5624083   3.2551673  38.8113833  24.1334083
   6.0121673  49.7863833  25.8274083   6.2181673  50.0873833  26.6194083
   5.9511673  50.5083833  25.3424083   6.0331673  49.9373833  25.8724083
   5.5461673  54.0003833  30.0734083   4.7931673  53.9823833  29.6324083
   5.7141673  54.8523833  30.1574083   5.4601673  54.1233833  30.0204083
  10.8241673  48.4253833  25.2854083  10.7921673  47.5633833  25.1504083
  10.1311673  48.7273833  24.8514083  10.7171673  48.3423833  25.2014083
   8.9291673  51.6853833  24.0824083   9.4561673  51.6023833  23.3914083
   8.5381673  50.9073833  24.1364083   8.9491673  51.5583833  23.9884083
   5.4431673  37.1293833  23.2904083   6.1131673  37.6733833  23.4174083
   4.9401673  37.5533833  22.7174083   5.4681673  37.2723833  23.2244083
   4.8021673  42.9373833  20.7834083   5.3531673  42.3303833  21.0834083
   4.3771673  43.2003833  21.4984083   4.8211673  42.8863833  20.9324083
   6.7721673  44.7683833  17.3454083   6.8401673  43.9183833  17.5264083
   5.9491673  44.8543833  17.0674083   6.6601673  44.6553833  17.3314083
   9.8511673  53.7233833  13.7634083  10.4881673  53.5893833  14.3444083
   9.5101673  52.9293833  13.6464083   9.8951673  53.5863833  13.8314083
  10.0461673  46.1413833  30.4964083  10.6801673  45.9713833  31.0704083
  10.4631673  46.5443833  29.8444083  10.2011673  46.1763833  30.4854083
   5.9261673  49.9883833  16.0854083   5.6751673  49.8603833  16.9114083
   5.6091673  49.2933833  15.6644083   5.8421673  49.8673833  16.1454083
  10.6711673  40.7053833  31.2344083  10.4751673  41.3493833  31.7894083
   9.9491673  40.2153833  31.2264083  10.5361673  40.7283833  31.3154083
  10.5701673  41.6463833  24.2054083   9.7371673  41.8963833  24.1334083
  10.5141673  40.8063833  24.4344083  10.4391673  41.5593833  24.2284083
   7.4571673  46.2523833  31.8514083   8.3281673  46.2163833  31.8154083
   7.2381673  46.6723833  31.1194083   7.5541673  46.3083833  31.7384083
   2.8121673  48.1963833  15.5154083   3.5291673  47.8493833  15.1594083
   2.7781673  48.9963833  15.1674083   2.9131673  48.2633833  15.4114083
   4.0301673  43.7533833   4.4251673   3.5061673  44.3493833   4.7881673
   4.4271673  43.3853833   5.1091673   4.0111673  43.7873833   4.5801673
   3.5151673  42.8103833  10.5211673   2.6671673  42.7113833  10.3431673
   3.5441673  43.5553833  10.9751673   3.3941673  42.9063833  10.5621673
   8.0731673  35.7703833   9.6351673   7.9151673  36.5393833   9.2531673
   7.3011673  35.5503833   9.9791673   7.9351673  35.8513833   9.6301673
   6.2411673  53.1543833   6.5481673   6.9851673  53.6103833   6.5381673
   6.1201673  52.9403833   5.7111673   6.3331673  53.1903833   6.4231673
   2.4581673  37.1003833  11.2921673   2.6361673  36.2913833  11.0171673
   2.3151673  37.5413833  10.5531673   2.4631673  37.0463833  11.1421673
  10.6041673  38.7073833   5.8131673  11.3611673  38.7793833   5.3851673
  10.6671673  37.9343833   6.2121673  10.7251673  38.6043833   5.8081673
   5.4951673  50.3393833  10.2521673   5.4611673  50.7213833  11.0361673
   6.3491673  50.2973833  10.0811673   5.6161673  50.3893833  10.3431673
   3.9471673  53.5033833   7.7501673   4.7151673  53.4233833   7.3441673
   3.3641673  53.3823833   7.1121673   3.9741673  53.4733833   7.5961673
   5.7881673  40.2863833   7.6711673   5.6931673  40.6053833   8.4771673
   5.1951673  39.6473833   7.6331673   5.6861673  40.2383833   7.7851673
   6.4871673  47.0053833   5.8761673   5.9731673  46.5933833   6.4471673
   6.3611673  47.8493833   6.0571673   6.3931673  47.0693833   5.9871673
   9.5081673  40.4663833   8.8151673  10.2801673  40.2413833   9.1521673
   9.0331673  40.6833833   9.5151673   9.5521673  40.4653833   8.9681673
  11.9741673  51.9533833  10.2571673  11.2921673  52.2633833   9.8101673
  11.6051673  51.4953833  10.9021673  11.8181673  51.9313833  10.2861673
  12.1451673  43.2203833   7.5971673  12.3601673  42.4203833   7.3211673
  11.2951673  43.2803833   7.4081673  12.0511673  43.1113833   7.5281673
   6.2781673  40.6883833   2.3931673   6.6221673  40.8403833   3.1801673
   5.8251673  39.9503833   2.5061673   6.2621673  40.6013833   2.5261673
   9.8081673  52.3353833   8.3471673   9.1371673  52.8493833   8.5651673
   9.8711673  52.4353833   7.4831673   9.7181673  52.4263833   8.2521673
   7.5991673  42.0203833   4.9471673   6.9371673  42.3483833   5.4101673
   7.7861673  42.6543833   4.3781673   7.5291673  42.1623833   4.9311673
   4.2441673  37.9263833   8.3761673   4.3931673  37.1013833   8.1331673
   4.6231673  37.9813833   9.1601673   4.3221673  37.8123833   8.4561673
   7.1061673  47.8673833  10.3681673   7.5901673  48.5853833  10.4661673
   7.5001673  47.4403833   9.7171673   7.2361673  47.9103833  10.2861673
   2.3741673  41.4593833   4.1831673   2.8541673  42.1583833   4.3911673
   2.7471673  40.8123833   4.6341673   2.5001673  41.4673833   4.2801673
   5.5801673  51.5643833   4.2821673   4.9771673  51.2683833   3.7251673
   6.1251673  52.0163833   3.7731673   5.5711673  51.5873833   4.1241673
   5.5931673  48.4153833   3.6821673   4.7961673  48.6393833   3.9561673
   5.8511673  47.8213833   4.2671673   5.5131673  48.3603833   3.8091673
   8.8531673  46.4133833   8.5281673   8.9081673  46.5383833   7.6661673
   9.6061673  46.7333833   8.8301673   8.9721673  46.4783833   8.4451673
   5.0441673  51.7623833  12.8051673   5.2081673  52.0453833  13.6141673
   5.3071673  52.4233833  12.3001673   5.1071673  51.9023833  12.8501673
   9.8851673  36.7113833  11.5151673   9.2481673  36.3113833  11.0731673
   9.9111673  36.2803833  12.2731673   9.7951673  36.5893833  11.5611673
   4.5841673  46.2193833   8.1281673   4.4291673  46.8293833   8.7321673
   5.1181673  45.6613833   8.5341673   4.6401673  46.2273833   8.2771673
   8.1941673  48.9483833   4.6551673   7.7151673  49.2463833   3.9891673
   7.8381673  48.1723833   4.8331673   8.0711673  48.8773833   4.5831673
   9.1251673  45.8903833   5.7741673   9.1181673  45.1143833   6.1721673
   8.2841673  46.1243833   5.7671673   9.0001673  45.8103833   5.8321673
  10.3811673  45.9613833   3.2111673  10.0951673  46.3623833   3.9311673
  11.2411673  45.8993833   3.3381673  10.4661673  46.0113833   3.3361673
   8.0431673  39.8853833  11.7511673   7.5181673  40.3443833  12.2751673
   7.6821673  39.0903833  11.7451673   7.9121673  39.8353833  11.8271673
  11.5121673  51.5943833   3.7401673  11.8021673  51.8513833   2.9591673
  12.2071673  51.6903833   4.2591673  11.6581673  51.6463833   3.7011673
   6.5351673  43.4543833  11.8271673   6.6081673  43.5583833  12.6901673
   5.9011673  44.0123833  11.6061673   6.4521673  43.5523833  11.9221673
   8.8031673  43.7733833  10.1921673   9.1221673  44.5593833  10.3951673
   8.4331673  43.5033833  10.9351673   8.7961673  43.8493833  10.3321673
  11.5011673  44.3153833  12.9271673  11.4491673  43.9743833  12.1261673
  12.2381673  44.7823833  12.9051673  11.6021673  44.3343833  12.8051673
  11.0391673  47.9913833   9.1331673  11.6671673  47.4423833   8.8771673
  10.9781673  48.5563833   8.4711673  11.1231673  47.9943833   8.9971673
   7.5111673  38.3613833   8.8421673   8.2551673  38.8133833   8.7791673
   6.9451673  38.8313833   8.3731673   7.5381673  38.4983833   8.7641673
   2.6891673  45.6453833   5.9201673   3.1651673  46.0193833   6.5481673
   1.8661673  45.7793833   6.1791673   2.6381673  45.7203833   6.0511673
   8.7961673  36.3413833   6.5121673   8.5161673  37.1663833   6.4681673
   9.5121673  36.3943833   7.0081673   8.8611673  36.4713833   6.5791673
   4.4451673  47.9003833  11.5261673   5.2021673  48.1863833  11.2001673
   3.8981673  47.9523833  10.8481673   4.4761673  47.9503833  11.3771673
   8.3541673  50.4503833  10.0301673   8.7001673  50.7203833  10.7841673
   8.6481673  51.0323833   9.4501673   8.4491673  50.5763833  10.0561673
   5.6761673  41.2113833  10.1941673   5.0281673  41.6813833  10.5421673
   6.2411673  41.1223833  10.8531673   5.6641673  41.2673833  10.3431673
   5.3641673  42.7483833   6.4921673   5.6661673  43.1683833   7.1951673
   5.4001673  41.9083833   6.7241673   5.4141673  42.6863833   6.6301673
   2.7891673  52.9153833  10.4171673   3.2671673  52.3153833  10.0011673
   2.4381673  52.4723833  11.0821673   2.8081673  52.7613833  10.4541673
   2.8481673  48.1343833   9.4371673   2.0531673  48.0703833   9.7881673
   2.9191673  48.9813833   9.2421673   2.7411673  48.2493833   9.4601673
   3.3371673  50.7813833   8.5451673   4.0241673  50.6673833   9.0701673
   3.4711673  51.5723833   8.2011673   3.4581673  50.8813833   8.5721673
  11.5131673  43.3903833  10.3561673  10.6581673  43.2683833  10.4821673
  11.6661673  42.9953833   9.5931673  11.4091673  43.3133833  10.2621673
   6.0261673  44.0553833   8.9321673   5.7711673  43.3363833   9.3541673
   6.8471673  44.1713833   9.2021673   6.1101673  43.9663833   9.0341673
   3.9601673  45.2453833  12.1191673   4.2831673  45.9313833  11.6871673
   3.2561673  45.5683833  12.5211673   3.9031673  45.3943833  12.1141673
   7.0441673  53.6193833   3.0481673   6.5931673  54.2623833   3.4271673
   7.7521673  53.5403833   3.5531673   7.0821673  53.7023833   3.1791673
   3.7451673  48.7093833   5.9781673   3.0511673  49.1113833   6.3211673
   4.4221673  49.1423833   6.3171673   3.7421673  48.8323833   6.0791673
   9.1221673  51.3023833  12.5581673   9.8981673  50.9123833  12.6411673
   8.6531673  50.9663833  13.2131673   9.1671673  51.1953833  12.6671673
   9.2491673  43.4813833   7.3961673   9.2471673  42.6183833   7.5201673
   9.3161673  43.8053833   8.2031673   9.2591673  43.4013833   7.5331673
   5.1281673  38.2813833  11.1781673   5.2201673  38.9933833  11.6721673
   4.4911673  37.8363833  11.5751673   5.0471673  38.3203833  11.3101673
   7.7201673  38.9873833   4.8321673   8.5751673  39.0863833   4.9771673
   7.3511673  39.5403833   5.3971673   7.7921673  39.0843833   4.9371673
   8.0241673  44.2673833   3.3231673   8.6901673  44.8083833   3.4831673
   7.6791673  44.5783833   2.5841673   8.0711673  44.3933833   3.2381673
  11.1951673  36.8253833   7.9881673  11.1431673  36.7813833   8.8581673
  11.8821673  36.3223833   7.7981673  11.2891673  36.7453833   8.0881673
   3.2801673  38.9383833   5.0331673   2.5431673  38.4843833   5.1461673
   3.8511673  38.5363833   5.5561673   3.2551673  38.8113833   5.1271673
   6.0121673  49.7863833   6.8211673   6.2181673  50.0873833   7.6131673
   5.9511673  50.5083833   6.3361673   6.0331673  49.9373833   6.8661673
   5.5461673  54.0003833  11.0671673   4.7931673  53.9823833  10.6261673
   5.7141673  54.8523833  11.1511673   5.4601673  54.1233833  11.0141673
  10.8241673  48.4253833   6.2791673  10.7921673  47.5633833   6.1441673
  10.1311673  48.7273833   5.8451673  10.7171673  48.3423833   6.1951673
   8.9291673  51.6853833   5.0761673   9.4561673  51.6023833   4.3851673
   8.5381673  50.9073833   5.1301673   8.9491673  51.5583833   4.9821673
   5.4431673  37.1293833   4.2841673   6.1131673  37.6733833   4.4111673
   4.9401673  37.5533833   3.7111673   5.4681673  37.2723833   4.2181673
   4.8021673  42.9373833   1.7771673   5.3531673  42.3303833   2.0771673
   4.3771673  43.2003833   2.4921673   4.8211673  42.8863833   1.9261673
  10.0461673  46.1413833  11.4901673  10.6801673  45.9713833  12.0641673
  10.4631673  46.5443833  10.8381673  10.2011673  46.1763833  11.4791673
  10.6711673  40.7053833  12.2281673  10.4751673  41.3493833  12.7831673
   9.9491673  40.2153833  12.2201673  10.5361673  40.7283833  12.3091673
  10.5701673  41.6463833   5.1991673   9.7371673  41.8963833   5.1271673
  10.5141673  40.8063833   5.4281673  10.4391673  41.5593833   5.2221673
   7.4571673  46.2523833  12.8451673   8.3281673  46.2163833  12.8091673
   7.2381673  46.6723833  12.1131673   7.5541673  46.3083833  12.7321673
   4.2211673  18.3592753  75.7791313   3.9761673  18.8472753  75.0991313
   5.0841673  18.2862753  75.6791313   4.3121673  18.4202753  75.6641313
   4.0301673  25.2752753  80.4501313   3.5061673  25.8712753  80.8131313
   4.4271673  24.9072753  81.1341313   4.0111673  25.3092753  80.6051313
  10.1741673  32.7162753  73.4211313  10.8751673  32.1972753  73.4171313
   9.5871673  32.2712753  72.9521313  10.1911673  32.5732753  73.3511313
   6.7011673  26.3422753  77.1261313   6.7811673  26.3462753  76.2571313
   6.1171673  25.7102753  77.2751313   6.6261673  26.2492753  77.0201313
   5.5351673  21.9332753  70.1741313   5.0851673  22.6142753  70.4811313
   5.6491673  21.4292753  70.8771313   5.4861673  21.9592753  70.3231313
   5.6341673  34.2742753  72.2781313   6.3611673  34.7462753  72.3801313
   5.8631673  33.4802753  72.5581313   5.7761673  34.2272753  72.3351313
   3.8021673  34.6662753  74.2681313   4.0161673  35.1932753  74.9301313
   4.5691673  34.4922753  73.8891313   3.9471673  34.7182753  74.3101313
  10.9291673  21.9062753  76.4691313  10.5831673  22.5842753  76.8951313
  10.2931673  21.3082753  76.4851313  10.7841673  21.9182753  76.5341313
   3.0521673  23.5482753  76.0901313   3.3391673  23.3162753  75.3001313
   3.7841673  23.6272753  76.5591313   3.2021673  23.5252753  76.0431313
   3.7741673  23.8872753  71.2111313   4.0551673  24.6752753  71.4601313
   2.9981673  24.0522753  70.8481313   3.7011673  24.0282753  71.1941313
   7.8151673  35.8612753  72.6781313   8.4801673  35.7132753  72.1331313
   8.1751673  35.7782753  73.4681313   7.9671673  35.8272753  72.7141313
   2.6331673  32.0582753  71.0271313   2.4521673  32.6032753  71.6841313
   3.3991673  32.3482753  70.7261313   2.7191673  32.1822753  71.0801313
   6.1401673  19.9542753  72.0811313   6.6801673  19.2722753  72.1571313
   6.2021673  20.3522753  72.8551313   6.2291673  19.9122753  72.2071313
   3.3981673  22.3302753  73.3951313   2.8901673  21.6682753  73.1411313
   3.4501673  22.8342753  72.6851313   3.3311673  22.3072753  73.2531313
   3.3981673  19.2712753  73.2861313   2.9431673  18.8692753  72.6601313
   4.1711673  19.4262753  72.9111313   3.4451673  19.2352753  73.1381313
  10.2241673  35.6282753  76.6761313   9.7691673  36.3452753  76.8771313
   9.6101673  35.0572753  76.4341313  10.0661673  35.6502753  76.6701313
   1.9961673  21.6382753  77.8081313   2.0701673  22.2062753  77.1501313
   2.1171673  22.1302753  78.5181313   2.0241673  21.7952753  77.8161313
   7.2211673  31.4732753  76.2201313   7.9221673  30.9912753  76.4091313
   6.5611673  30.9042753  76.2651313   7.2271673  31.3182753  76.2541313
   7.0441673  17.7522753  76.5321313   7.0931673  17.4342753  77.3431313
   7.3671673  17.1082753  76.0391313   7.0991673  17.6102753  76.5791313
   9.7401673  28.9662753  72.0281313   9.8591673  28.6792753  72.8431313
  10.5471673  28.9872753  71.6981313   9.8761673  28.9272753  72.1001313
   7.6351673  25.5032753  71.6131313   7.4151673  26.2342753  71.1911313
   7.1871673  25.5542753  72.3601313   7.5361673  25.6182753  71.6611313
  11.8221673  20.3642753  71.0661313  11.1601673  19.7962753  71.0891313
  11.6291673  20.8762753  70.3861313  11.6961673  20.3562753  70.9691313
   9.8241673  19.9222753  73.3451313  10.5701673  19.5152753  73.5441313
  10.0871673  20.6372753  72.9201313   9.9731673  19.9682753  73.3121313
   3.7671673  32.4082753  77.9211313   3.2441673  33.0422753  77.6281313
   4.0771673  32.0442753  77.1921313   3.7351673  32.4482753  77.7701313
   6.2781673  22.2102753  78.4181313   6.6221673  22.3622753  79.2051313
   5.8251673  21.4722753  78.5311313   6.2621673  22.1232753  78.5511313
   7.5991673  23.5422753  80.9721313   6.9371673  23.8702753  81.4351313
   7.7861673  24.1762753  80.4031313   7.5291673  23.6842753  80.9561313
   5.7921673  21.5112753  74.4831313   6.2821673  22.2282753  74.4061313
   5.0021673  21.7722753  74.2201313   5.7481673  21.6552753  74.4331313
   2.3741673  22.9812753  80.2081313   2.8541673  23.6802753  80.4161313
   2.7471673  22.3342753  80.6591313   2.5001673  22.9892753  80.3051313
   4.5631673  26.1502753  72.4821313   4.5551673  26.8722753  71.9921313
   3.9241673  26.2852753  73.0591313   4.4681673  26.2772753  72.4951313
   9.5351673  30.0202753  76.4631313   9.8911673  29.6702753  77.1781313
   9.5271673  29.3592753  75.8931313   9.5871673  29.8702753  76.4841313
   5.5801673  33.0862753  80.3071313   4.9771673  32.7902753  79.7501313
   6.1251673  33.5382753  79.7981313   5.5711673  33.1092753  80.1491313
   5.5931673  29.9372753  79.7071313   4.7961673  30.1612753  79.9811313
   5.8511673  29.3432753  80.2921313   5.5131673  29.8822753  79.8341313
   1.7771673  34.2652753  72.5571313   2.3991673  34.4282753  73.1471313
   1.8131673  34.9562753  72.0251313   1.8741673  34.3912753  72.5661313
   2.9681673  26.1412753  74.8111313   3.0271673  26.7912753  75.3901313
   2.7791673  25.4452753  75.3021313   2.9491673  26.1342753  74.9691313
   8.1941673  30.4702753  80.6801313   7.7151673  30.7682753  80.0141313
   7.8381673  29.6942753  80.8581313   8.0711673  30.3992753  80.6081313
  11.8861673  34.6362753  72.6201313  12.5801673  34.1692753  72.3721313
  11.3471673  34.0382753  72.9571313  11.9091673  34.4782753  72.6331313
  10.3811673  27.4832753  79.2361313  10.0951673  27.8842753  79.9561313
  11.2411673  27.4212753  79.3631313  10.4661673  27.5332753  79.3611313
  11.5121673  33.1162753  79.7651313  11.8021673  33.3732753  78.9841313
  12.2071673  33.2122753  80.2841313  11.6581673  33.1682753  79.7261313
   8.1171673  31.7192753  71.7471313   8.4511673  30.9132753  71.7821313
   7.3621673  31.6472753  72.1771313   8.0551673  31.5892753  71.8161313
   8.5991673  23.5532753  77.4061313   7.8541673  23.2302753  77.7241313
   8.6011673  24.3792753  77.6861313   8.4891673  23.6272753  77.4941313
   5.4911673  29.5942753  71.1501313   6.1751673  29.0802753  70.9811313
   5.0741673  29.6402753  70.3851313   5.5301673  29.5252753  71.0121313
  10.2171673  24.1182753  71.3941313  10.5951673  24.7952753  70.9941313
   9.3751673  24.3422753  71.4251313  10.1481673  24.2512753  71.3391313
   7.9121673  23.7172753  74.7691313   8.1191673  23.5162753  75.5931313
   8.6681673  23.9852753  74.4271313   8.0541673  23.7272753  74.8401313
   8.9341673  19.8002753  76.2431313   8.2201673  19.3292753  76.4141313
   8.7721673  20.1412753  75.4571313   8.8051673  19.7812753  76.1521313
   9.3771673  27.7442753  74.6231313   9.8531673  27.0152753  74.5751313
   8.5561673  27.4582753  74.5471313   9.3261673  27.5942753  74.6041313
   5.5931673  28.9112753  76.9781313   5.6691673  29.2522753  77.7771313
   5.7621673  28.0642753  77.0991313   5.6291673  28.8362753  77.1141313
   3.1151673  28.1852753  76.5431313   2.8171673  27.8702753  77.3001313
   3.8101673  28.6582753  76.7781313   3.1741673  28.2082753  76.6901313
   7.0441673  35.1412753  79.0731313   6.5931673  35.7842753  79.4521313
   7.7521673  35.0622753  79.5781313   7.0821673  35.2242753  79.2041313
  10.1471673  24.8572753  74.0651313  10.2501673  24.7992753  73.2011313
  10.8881673  24.5252753  74.3831313  10.2721673  24.8002753  73.9841313
   4.0671673  31.8222753  75.1721313   3.8621673  32.6552753  75.0131313
   3.2921673  31.4402753  75.2941313   3.9221673  31.8892753  75.1671313
   4.1221673  19.9932753  78.0571313   3.4221673  20.5112753  78.0011313
   4.1601673  19.6132753  77.2731313   4.0241673  20.0142753  77.9331313
   7.7201673  20.5092753  80.8571313   8.5751673  20.6082753  81.0021313
   7.3511673  21.0622753  81.4221313   7.7921673  20.6062753  80.9621313
   8.0241673  25.7892753  79.3481313   8.6901673  26.3302753  79.5081313
   7.6791673  26.1002753  78.6091313   8.0711673  25.9152753  79.2631313
   8.3371673  33.8552753  75.1551313   8.1631673  33.2012753  75.7051313
   9.0501673  33.5842753  74.7321313   8.4171673  33.7182753  75.1741313
   3.2801673  20.4602753  81.0581313   2.5431673  20.0062753  81.1711313
   3.8511673  20.0582753  81.5811313   3.2551673  20.3332753  81.1521313
   8.9291673  33.2072753  81.1011313   9.4561673  33.1242753  80.4101313
   8.5381673  32.4292753  81.1551313   8.9491673  33.0802753  81.0071313
   5.4431673  18.6512753  80.3091313   6.1131673  19.1952753  80.4361313
   4.9401673  19.0752753  79.7361313   5.4681673  18.7942753  80.2431313
   4.8021673  24.4592753  77.8021313   5.3531673  23.8522753  78.1021313
   4.3771673  24.7222753  78.5171313   4.8211673  24.4082753  77.9511313
   6.7721673  26.2902753  74.3641313   6.8401673  25.4402753  74.5451313
   5.9491673  26.3762753  74.0861313   6.6601673  26.1772753  74.3501313
   9.8511673  35.2452753  70.7821313  10.4881673  35.1112753  71.3631313
   9.5101673  34.4512753  70.6651313   9.8951673  35.1082753  70.8501313
   5.9261673  31.5102753  73.1041313   5.6751673  31.3822753  73.9301313
   5.6091673  30.8152753  72.6831313   5.8421673  31.3892753  73.1641313
  10.5701673  23.1682753  81.2241313   9.7371673  23.4182753  81.1521313
  10.5141673  22.3282753  81.4531313  10.4391673  23.0812753  81.2471313
   2.8121673  29.7182753  72.5341313   3.5291673  29.3712753  72.1781313
   2.7781673  30.5182753  72.1861313   2.9131673  29.7852753  72.4301313
   4.2211673  18.3592753  56.7728903   3.9761673  18.8472753  56.0928903
   5.0841673  18.2862753  56.6728903   4.3121673  18.4202753  56.6578903
   4.0301673  25.2752753  61.4438903   3.5061673  25.8712753  61.8068903
   4.4271673  24.9072753  62.1278903   4.0111673  25.3092753  61.5988903
  10.1741673  32.7162753  54.4148903  10.8751673  32.1972753  54.4108903
   9.5871673  32.2712753  53.9458903  10.1911673  32.5732753  54.3448903
   6.7011673  26.3422753  58.1198903   6.7811673  26.3462753  57.2508903
   6.1171673  25.7102753  58.2688903   6.6261673  26.2492753  58.0138903
   3.5151673  24.3322753  67.5398903   2.6671673  24.2332753  67.3618903
   3.5441673  25.0772753  67.9938903   3.3941673  24.4282753  67.5808903
   8.0731673  17.2922753  66.6538903   7.9151673  18.0612753  66.2718903
   7.3011673  17.0722753  66.9978903   7.9351673  17.3732753  66.6488903
   5.5351673  21.9332753  51.1678903   5.0851673  22.6142753  51.4748903
   5.6491673  21.4292753  51.8708903   5.4861673  21.9592753  51.3168903
   5.6341673  34.2742753  53.2718903   6.3611673  34.7462753  53.3738903
   5.8631673  33.4802753  53.5518903   5.7761673  34.2272753  53.3288903
   3.8021673  34.6662753  55.2618903   4.0161673  35.1932753  55.9238903
   4.5691673  34.4922753  54.8828903   3.9471673  34.7182753  55.3038903
  10.9291673  21.9062753  57.4628903  10.5831673  22.5842753  57.8888903
  10.2931673  21.3082753  57.4788903  10.7841673  21.9182753  57.5278903
   6.2411673  34.6762753  63.5668903   6.9851673  35.1322753  63.5568903
   6.1201673  34.4622753  62.7298903   6.3331673  34.7122753  63.4418903
   2.4581673  18.6222753  68.3108903   2.6361673  17.8132753  68.0358903
   2.3151673  19.0632753  67.5718903   2.4631673  18.5682753  68.1608903
   3.0521673  23.5482753  57.0838903   3.3391673  23.3162753  56.2938903
   3.7841673  23.6272753  57.5528903   3.2021673  23.5252753  57.0368903
   3.7741673  23.8872753  52.2048903   4.0551673  24.6752753  52.4538903
   2.9981673  24.0522753  51.8418903   3.7011673  24.0282753  52.1878903
   7.8151673  35.8612753  53.6718903   8.4801673  35.7132753  53.1268903
   8.1751673  35.7782753  54.4618903   7.9671673  35.8272753  53.7078903
  10.6041673  20.2292753  62.8318903  11.3611673  20.3012753  62.4038903
  10.6671673  19.4562753  63.2308903  10.7251673  20.1262753  62.8268903
   5.4951673  31.8612753  67.2708903   5.4611673  32.2432753  68.0548903
   6.3491673  31.8192753  67.0998903   5.6161673  31.9112753  67.3618903
   2.6331673  32.0582753  52.0208903   2.4521673  32.6032753  52.6778903
   3.3991673  32.3482753  51.7198903   2.7191673  32.1822753  52.0738903
   6.1401673  19.9542753  53.0748903   6.6801673  19.2722753  53.1508903
   6.2021673  20.3522753  53.8488903   6.2291673  19.9122753  53.2008903
   3.3981673  22.3302753  54.3888903   2.8901673  21.6682753  54.1348903
   3.4501673  22.8342753  53.6788903   3.3311673  22.3072753  54.2468903
   3.9471673  35.0252753  64.7688903   4.7151673  34.9452753  64.3628903
   3.3641673  34.9042753  64.1308903   3.9741673  34.9952753  64.6148903
   3.3981673  19.2712753  54.2798903   2.9431673  18.8692753  53.6538903
   4.1711673  19.4262753  53.9048903   3.4451673  19.2352753  54.1318903
  10.2241673  35.6282753  57.6698903   9.7691673  36.3452753  57.8708903
   9.6101673  35.0572753  57.4278903  10.0661673  35.6502753  57.6638903
   1.9961673  21.6382753  58.8018903   2.0701673  22.2062753  58.1438903
   2.1171673  22.1302753  59.5118903   2.0241673  21.7952753  58.8098903
   7.2211673  31.4732753  57.2138903   7.9221673  30.9912753  57.4028903
   6.5611673  30.9042753  57.2588903   7.2271673  31.3182753  57.2478903
   5.7881673  21.8082753  64.6898903   5.6931673  22.1272753  65.4958903
   5.1951673  21.1692753  64.6518903   5.6861673  21.7602753  64.8038903
   6.4871673  28.5272753  62.8948903   5.9731673  28.1152753  63.4658903
   6.3611673  29.3712753  63.0758903   6.3931673  28.5912753  63.0058903
   7.0441673  17.7522753  57.5258903   7.0931673  17.4342753  58.3368903
   7.3671673  17.1082753  57.0328903   7.0991673  17.6102753  57.5728903
   9.5081673  21.9882753  65.8338903  10.2801673  21.7632753  66.1708903
   9.0331673  22.2052753  66.5338903   9.5521673  21.9872753  65.9868903
   9.7401673  28.9662753  53.0218903   9.8591673  28.6792753  53.8368903
  10.5471673  28.9872753  52.6918903   9.8761673  28.9272753  53.0938903
  11.9741673  33.4752753  67.2758903  11.2921673  33.7852753  66.8288903
  11.6051673  33.0172753  67.9208903  11.8181673  33.4532753  67.3048903
   7.6351673  25.5032753  52.6068903   7.4151673  26.2342753  52.1848903
   7.1871673  25.5542753  53.3538903   7.5361673  25.6182753  52.6548903
  11.8221673  20.3642753  52.0598903  11.1601673  19.7962753  52.0828903
  11.6291673  20.8762753  51.3798903  11.6961673  20.3562753  51.9628903
  12.1451673  24.7422753  64.6158903  12.3601673  23.9422753  64.3398903
  11.2951673  24.8022753  64.4268903  12.0511673  24.6332753  64.5468903
   9.8241673  19.9222753  54.3388903  10.5701673  19.5152753  54.5378903
  10.0871673  20.6372753  53.9138903   9.9731673  19.9682753  54.3058903
   3.7671673  32.4082753  58.9148903   3.2441673  33.0422753  58.6218903
   4.0771673  32.0442753  58.1858903   3.7351673  32.4482753  58.7638903
   6.2781673  22.2102753  59.4118903   6.6221673  22.3622753  60.1988903
   5.8251673  21.4722753  59.5248903   6.2621673  22.1232753  59.5448903
   9.8081673  33.8572753  65.3658903   9.1371673  34.3712753  65.5838903
   9.8711673  33.9572753  64.5018903   9.7181673  33.9482753  65.2708903
   7.5991673  23.5422753  61.9658903   6.9371673  23.8702753  62.4288903
   7.7861673  24.1762753  61.3968903   7.5291673  23.6842753  61.9498903
   4.2441673  19.4482753  65.3948903   4.3931673  18.6232753  65.1518903
   4.6231673  19.5032753  66.1788903   4.3221673  19.3342753  65.4748903
   5.7921673  21.5112753  55.4768903   6.2821673  22.2282753  55.3998903
   5.0021673  21.7722753  55.2138903   5.7481673  21.6552753  55.4268903
   7.1061673  29.3892753  67.3868903   7.5901673  30.1072753  67.4848903
   7.5001673  28.9622753  66.7358903   7.2361673  29.4322753  67.3048903
   2.3741673  22.9812753  61.2018903   2.8541673  23.6802753  61.4098903
   2.7471673  22.3342753  61.6528903   2.5001673  22.9892753  61.2988903
   4.5631673  26.1502753  53.4758903   4.5551673  26.8722753  52.9858903
   3.9241673  26.2852753  54.0528903   4.4681673  26.2772753  53.4888903
   9.5351673  30.0202753  57.4568903   9.8911673  29.6702753  58.1718903
   9.5271673  29.3592753  56.8868903   9.5871673  29.8702753  57.4778903
   5.5801673  33.0862753  61.3008903   4.9771673  32.7902753  60.7438903
   6.1251673  33.5382753  60.7918903   5.5711673  33.1092753  61.1428903
   5.5931673  29.9372753  60.7008903   4.7961673  30.1612753  60.9748903
   5.8511673  29.3432753  61.2858903   5.5131673  29.8822753  60.8278903
   1.7771673  34.2652753  53.5508903   2.3991673  34.4282753  54.1408903
   1.8131673  34.9562753  53.0188903   1.8741673  34.3912753  53.5598903
   8.8531673  27.9352753  65.5468903   8.9081673  28.0602753  64.6848903
   9.6061673  28.2552753  65.8488903   8.9721673  28.0002753  65.4638903
   5.0441673  33.2842753  69.8238903   5.2081673  33.5672753  70.6328903
   5.3071673  33.9452753  69.3188903   5.1071673  33.4242753  69.8688903
   9.8851673  18.2332753  68.5338903   9.2481673  17.8332753  68.0918903
   9.9111673  17.8022753  69.2918903   9.7951673  18.1112753  68.5798903
   4.5841673  27.7412753  65.1468903   4.4291673  28.3512753  65.7508903
   5.1181673  27.1832753  65.5528903   4.6401673  27.7492753  65.2958903
   2.9681673  26.1412753  55.8048903   3.0271673  26.7912753  56.3838903
   2.7791673  25.4452753  56.2958903   2.9491673  26.1342753  55.9628903
   8.1941673  30.4702753  61.6738903   7.7151673  30.7682753  61.0078903
   7.8381673  29.6942753  61.8518903   8.0711673  30.3992753  61.6018903
  11.8861673  34.6362753  53.6138903  12.5801673  34.1692753  53.3658903
  11.3471673  34.0382753  53.9508903  11.9091673  34.4782753  53.6268903
   9.1251673  27.4122753  62.7928903   9.1181673  26.6362753  63.1908903
   8.2841673  27.6462753  62.7858903   9.0001673  27.3322753  62.8508903
  10.3811673  27.4832753  60.2298903  10.0951673  27.8842753  60.9498903
  11.2411673  27.4212753  60.3568903  10.4661673  27.5332753  60.3548903
   8.0431673  21.4072753  68.7698903   7.5181673  21.8662753  69.2938903
   7.6821673  20.6122753  68.7638903   7.9121673  21.3572753  68.8458903
  11.5121673  33.1162753  60.7588903  11.8021673  33.3732753  59.9778903
  12.2071673  33.2122753  61.2778903  11.6581673  33.1682753  60.7198903
   6.5351673  24.9762753  68.8458903   6.6081673  25.0802753  69.7088903
   5.9011673  25.5342753  68.6248903   6.4521673  25.0742753  68.9408903
   8.8031673  25.2952753  67.2108903   9.1221673  26.0812753  67.4138903
   8.4331673  25.0252753  67.9538903   8.7961673  25.3712753  67.3508903
   8.1171673  31.7192753  52.7408903   8.4511673  30.9132753  52.7758903
   7.3621673  31.6472753  53.1708903   8.0551673  31.5892753  52.8098903
   8.5991673  23.5532753  58.3998903   7.8541673  23.2302753  58.7178903
   8.6011673  24.3792753  58.6798903   8.4891673  23.6272753  58.4878903
  11.5011673  25.8372753  69.9458903  11.4491673  25.4962753  69.1448903
  12.2381673  26.3042753  69.9238903  11.6021673  25.8562753  69.8238903
  11.0391673  29.5132753  66.1518903  11.6671673  28.9642753  65.8958903
  10.9781673  30.0782753  65.4898903  11.1231673  29.5162753  66.0158903
   5.4911673  29.5942753  52.1438903   6.1751673  29.0802753  51.9748903
   5.0741673  29.6402753  51.3788903   5.5301673  29.5252753  52.0058903
   7.5111673  19.8832753  65.8608903   8.2551673  20.3352753  65.7978903
   6.9451673  20.3532753  65.3918903   7.5381673  20.0202753  65.7828903
   2.6891673  27.1672753  62.9388903   3.1651673  27.5412753  63.5668903
   1.8661673  27.3012753  63.1978903   2.6381673  27.2422753  63.0698903
   8.7961673  17.8632753  63.5308903   8.5161673  18.6882753  63.4868903
   9.5121673  17.9162753  64.0268903   8.8611673  17.9932753  63.5978903
   4.4451673  29.4222753  68.5448903   5.2021673  29.7082753  68.2188903
   3.8981673  29.4742753  67.8668903   4.4761673  29.4722753  68.3958903
   8.3541673  31.9722753  67.0488903   8.7001673  32.2422753  67.8028903
   8.6481673  32.5542753  66.4688903   8.4491673  32.0982753  67.0748903
  10.2171673  24.1182753  52.3878903  10.5951673  24.7952753  51.9878903
   9.3751673  24.3422753  52.4188903  10.1481673  24.2512753  52.3328903
   5.6761673  22.7332753  67.2128903   5.0281673  23.2032753  67.5608903
   6.2411673  22.6442753  67.8718903   5.6641673  22.7892753  67.3618903
   5.3641673  24.2702753  63.5108903   5.6661673  24.6902753  64.2138903
   5.4001673  23.4302753  63.7428903   5.4141673  24.2082753  63.6488903
   2.7891673  34.4372753  67.4358903   3.2671673  33.8372753  67.0198903
   2.4381673  33.9942753  68.1008903   2.8081673  34.2832753  67.4728903
   7.9121673  23.7172753  55.7628903   8.1191673  23.5162753  56.5868903
   8.6681673  23.9852753  55.4208903   8.0541673  23.7272753  55.8338903
   8.9341673  19.8002753  57.2368903   8.2201673  19.3292753  57.4078903
   8.7721673  20.1412753  56.4508903   8.8051673  19.7812753  57.1458903
   9.3771673  27.7442753  55.6168903   9.8531673  27.0152753  55.5688903
   8.5561673  27.4582753  55.5408903   9.3261673  27.5942753  55.5978903
   2.8481673  29.6562753  66.4558903   2.0531673  29.5922753  66.8068903
   2.9191673  30.5032753  66.2608903   2.7411673  29.7712753  66.4788903
   5.5931673  28.9112753  57.9718903   5.6691673  29.2522753  58.7708903
   5.7621673  28.0642753  58.0928903   5.6291673  28.8362753  58.1078903
   3.1151673  28.1852753  57.5368903   2.8171673  27.8702753  58.2938903
   3.8101673  28.6582753  57.7718903   3.1741673  28.2082753  57.6838903
   3.3371673  32.3032753  65.5638903   4.0241673  32.1892753  66.0888903
   3.4711673  33.0942753  65.2198903   3.4581673  32.4032753  65.5908903
  11.5131673  24.9122753  67.3748903  10.6581673  24.7902753  67.5008903
  11.6661673  24.5172753  66.6118903  11.4091673  24.8352753  67.2808903
   6.0261673  25.5772753  65.9508903   5.7711673  24.8582753  66.3728903
   6.8471673  25.6932753  66.2208903   6.1101673  25.4882753  66.0528903
   3.9601673  26.7672753  69.1378903   4.2831673  27.4532753  68.7058903
   3.2561673  27.0902753  69.5398903   3.9031673  26.9162753  69.1328903
   7.0441673  35.1412753  60.0668903   6.5931673  35.7842753  60.4458903
   7.7521673  35.0622753  60.5718903   7.0821673  35.2242753  60.1978903
   3.7451673  30.2312753  62.9968903   3.0511673  30.6332753  63.3398903
   4.4221673  30.6642753  63.3358903   3.7421673  30.3542753  63.0978903
   9.1221673  32.8242753  69.5768903   9.8981673  32.4342753  69.6598903
   8.6531673  32.4882753  70.2318903   9.1671673  32.7172753  69.6858903
  10.1471673  24.8572753  55.0588903  10.2501673  24.7992753  54.1948903
  10.8881673  24.5252753  55.3768903  10.2721673  24.8002753  54.9778903
   4.0671673  31.8222753  56.1658903   3.8621673  32.6552753  56.0068903
   3.2921673  31.4402753  56.2878903   3.9221673  31.8892753  56.1608903
   9.2491673  25.0032753  64.4148903   9.2471673  24.1402753  64.5388903
   9.3161673  25.3272753  65.2218903   9.2591673  24.9232753  64.5518903
   5.1281673  19.8032753  68.1968903   5.2201673  20.5152753  68.6908903
   4.4911673  19.3582753  68.5938903   5.0471673  19.8422753  68.3288903
   4.1221673  19.9932753  59.0508903   3.4221673  20.5112753  58.9948903
   4.1601673  19.6132753  58.2668903   4.0241673  20.0142753  58.9268903
   7.7201673  20.5092753  61.8508903   8.5751673  20.6082753  61.9958903
   7.3511673  21.0622753  62.4158903   7.7921673  20.6062753  61.9558903
   8.0241673  25.7892753  60.3418903   8.6901673  26.3302753  60.5018903
   7.6791673  26.1002753  59.6028903   8.0711673  25.9152753  60.2568903
   8.3371673  33.8552753  56.1488903   8.1631673  33.2012753  56.6988903
   9.0501673  33.5842753  55.7258903   8.4171673  33.7182753  56.1678903
  11.1951673  18.3472753  65.0068903  11.1431673  18.3032753  65.8768903
  11.8821673  17.8442753  64.8168903  11.2891673  18.2672753  65.1068903
   3.2801673  20.4602753  62.0518903   2.5431673  20.0062753  62.1648903
   3.8511673  20.0582753  62.5748903   3.2551673  20.3332753  62.1458903
   6.0121673  31.3082753  63.8398903   6.2181673  31.6092753  64.6318903
   5.9511673  32.0302753  63.3548903   6.0331673  31.4592753  63.8848903
   5.5461673  35.5222753  68.0858903   4.7931673  35.5042753  67.6448903
   5.7141673  36.3742753  68.1698903   5.4601673  35.6452753  68.0328903
  10.8241673  29.9472753  63.2978903  10.7921673  29.0852753  63.1628903
  10.1311673  30.2492753  62.8638903  10.7171673  29.8642753  63.2138903
   8.9291673  33.2072753  62.0948903   9.4561673  33.1242753  61.4038903
   8.5381673  32.4292753  62.1488903   8.9491673  33.0802753  62.0008903
   5.4431673  18.6512753  61.3028903   6.1131673  19.1952753  61.4298903
   4.9401673  19.0752753  60.7298903   5.4681673  18.7942753  61.2368903
   4.8021673  24.4592753  58.7958903   5.3531673  23.8522753  59.0958903
   4.3771673  24.7222753  59.5108903   4.8211673  24.4082753  58.9448903
   6.7721673  26.2902753  55.3578903   6.8401673  25.4402753  55.5388903
   5.9491673  26.3762753  55.0798903   6.6601673  26.1772753  55.3438903
   9.8511673  35.2452753  51.7758903  10.4881673  35.1112753  52.3568903
   9.5101673  34.4512753  51.6588903   9.8951673  35.1082753  51.8438903
  10.0461673  27.6632753  68.5088903  10.6801673  27.4932753  69.0828903
  10.4631673  28.0662753  67.8568903  10.2011673  27.6982753  68.4978903
   5.9261673  31.5102753  54.0978903   5.6751673  31.3822753  54.9238903
   5.6091673  30.8152753  53.6768903   5.8421673  31.3892753  54.1578903
  10.6711673  22.2272753  69.2468903  10.4751673  22.8712753  69.8018903
   9.9491673  21.7372753  69.2388903  10.5361673  22.2502753  69.3278903
  10.5701673  23.1682753  62.2178903   9.7371673  23.4182753  62.1458903
  10.5141673  22.3282753  62.4468903  10.4391673  23.0812753  62.2408903
   7.4571673  27.7742753  69.8638903   8.3281673  27.7382753  69.8278903
   7.2381673  28.1942753  69.1318903   7.5541673  27.8302753  69.7508903
   2.8121673  29.7182753  53.5278903   3.5291673  29.3712753  53.1718903
   2.7781673  30.5182753  53.1798903   2.9131673  29.7852753  53.4238903
   4.2211673  18.3592753  37.7666493   3.9761673  18.8472753  37.0866493
   5.0841673  18.2862753  37.6666493   4.3121673  18.4202753  37.6516493
   4.0301673  25.2752753  42.4376493   3.5061673  25.8712753  42.8006493
   4.4271673  24.9072753  43.1216493   4.0111673  25.3092753  42.5926493
  10.1741673  32.7162753  35.4086493  10.8751673  32.1972753  35.4046493
   9.5871673  32.2712753  34.9396493  10.1911673  32.5732753  35.3386493
   6.7011673  26.3422753  39.1136493   6.7811673  26.3462753  38.2446493
   6.1171673  25.7102753  39.2626493   6.6261673  26.2492753  39.0076493
   3.5151673  24.3322753  48.5336493   2.6671673  24.2332753  48.3556493
   3.5441673  25.0772753  48.9876493   3.3941673  24.4282753  48.5746493
   8.0731673  17.2922753  47.6476493   7.9151673  18.0612753  47.2656493
   7.3011673  17.0722753  47.9916493   7.9351673  17.3732753  47.6426493
   5.5351673  21.9332753  32.1616493   5.0851673  22.6142753  32.4686493
   5.6491673  21.4292753  32.8646493   5.4861673  21.9592753  32.3106493
   5.6341673  34.2742753  34.2656493   6.3611673  34.7462753  34.3676493
   5.8631673  33.4802753  34.5456493   5.7761673  34.2272753  34.3226493
   3.8021673  34.6662753  36.2556493   4.0161673  35.1932753  36.9176493
   4.5691673  34.4922753  35.8766493   3.9471673  34.7182753  36.2976493
  10.9291673  21.9062753  38.4566493  10.5831673  22.5842753  38.8826493
  10.2931673  21.3082753  38.4726493  10.7841673  21.9182753  38.5216493
   6.2411673  34.6762753  44.5606493   6.9851673  35.1322753  44.5506493
   6.1201673  34.4622753  43.7236493   6.3331673  34.7122753  44.4356493
   2.4581673  18.6222753  49.3046493   2.6361673  17.8132753  49.0296493
   2.3151673  19.0632753  48.5656493   2.4631673  18.5682753  49.1546493
   3.0521673  23.5482753  38.0776493   3.3391673  23.3162753  37.2876493
   3.7841673  23.6272753  38.5466493   3.2021673  23.5252753  38.0306493
   3.7741673  23.8872753  33.1986493   4.0551673  24.6752753  33.4476493
   2.9981673  24.0522753  32.8356493   3.7011673  24.0282753  33.1816493
   7.8151673  35.8612753  34.6656493   8.4801673  35.7132753  34.1206493
   8.1751673  35.7782753  35.4556493   7.9671673  35.8272753  34.7016493
  10.6041673  20.2292753  43.8256493  11.3611673  20.3012753  43.3976493
  10.6671673  19.4562753  44.2246493  10.7251673  20.1262753  43.8206493
   5.4951673  31.8612753  48.2646493   5.4611673  32.2432753  49.0486493
   6.3491673  31.8192753  48.0936493   5.6161673  31.9112753  48.3556493
   2.6331673  32.0582753  33.0146493   2.4521673  32.6032753  33.6716493
   3.3991673  32.3482753  32.7136493   2.7191673  32.1822753  33.0676493
   6.1401673  19.9542753  34.0686493   6.6801673  19.2722753  34.1446493
   6.2021673  20.3522753  34.8426493   6.2291673  19.9122753  34.1946493
   3.3981673  22.3302753  35.3826493   2.8901673  21.6682753  35.1286493
   3.4501673  22.8342753  34.6726493   3.3311673  22.3072753  35.2406493
   3.9471673  35.0252753  45.7626493   4.7151673  34.9452753  45.3566493
   3.3641673  34.9042753  45.1246493   3.9741673  34.9952753  45.6086493
   3.3981673  19.2712753  35.2736493   2.9431673  18.8692753  34.6476493
   4.1711673  19.4262753  34.8986493   3.4451673  19.2352753  35.1256493
  10.2241673  35.6282753  38.6636493   9.7691673  36.3452753  38.8646493
   9.6101673  35.0572753  38.4216493  10.0661673  35.6502753  38.6576493
   1.9961673  21.6382753  39.7956493   2.0701673  22.2062753  39.1376493
   2.1171673  22.1302753  40.5056493   2.0241673  21.7952753  39.8036493
   7.2211673  31.4732753  38.2076493   7.9221673  30.9912753  38.3966493
   6.5611673  30.9042753  38.2526493   7.2271673  31.3182753  38.2416493
   5.7881673  21.8082753  45.6836493   5.6931673  22.1272753  46.4896493
   5.1951673  21.1692753  45.6456493   5.6861673  21.7602753  45.7976493
   6.4871673  28.5272753  43.8886493   5.9731673  28.1152753  44.4596493
   6.3611673  29.3712753  44.0696493   6.3931673  28.5912753  43.9996493
   7.0441673  17.7522753  38.5196493   7.0931673  17.4342753  39.3306493
   7.3671673  17.1082753  38.0266493   7.0991673  17.6102753  38.5666493
   9.5081673  21.9882753  46.8276493  10.2801673  21.7632753  47.1646493
   9.0331673  22.2052753  47.5276493   9.5521673  21.9872753  46.9806493
   9.7401673  28.9662753  34.0156493   9.8591673  28.6792753  34.8306493
  10.5471673  28.9872753  33.6856493   9.8761673  28.9272753  34.0876493
  11.9741673  33.4752753  48.2696493  11.2921673  33.7852753  47.8226493
  11.6051673  33.0172753  48.9146493  11.8181673  33.4532753  48.2986493
   7.6351673  25.5032753  33.6006493   7.4151673  26.2342753  33.1786493
   7.1871673  25.5542753  34.3476493   7.5361673  25.6182753  33.6486493
  11.8221673  20.3642753  33.0536493  11.1601673  19.7962753  33.0766493
  11.6291673  20.8762753  32.3736493  11.6961673  20.3562753  32.9566493
  12.1451673  24.7422753  45.6096493  12.3601673  23.9422753  45.3336493
  11.2951673  24.8022753  45.4206493  12.0511673  24.6332753  45.5406493
   9.8241673  19.9222753  35.3326493  10.5701673  19.5152753  35.5316493
  10.0871673  20.6372753  34.9076493   9.9731673  19.9682753  35.2996493
   3.7671673  32.4082753  39.9086493   3.2441673  33.0422753  39.6156493
   4.0771673  32.0442753  39.1796493   3.7351673  32.4482753  39.7576493
   6.2781673  22.2102753  40.4056493   6.6221673  22.3622753  41.1926493
   5.8251673  21.4722753  40.5186493   6.2621673  22.1232753  40.5386493
   9.8081673  33.8572753  46.3596493   9.1371673  34.3712753  46.5776493
   9.8711673  33.9572753  45.4956493   9.7181673  33.9482753  46.2646493
   7.5991673  23.5422753  42.9596493   6.9371673  23.8702753  43.4226493
   7.7861673  24.1762753  42.3906493   7.5291673  23.6842753  42.9436493
   4.2441673  19.4482753  46.3886493   4.3931673  18.6232753  46.1456493
   4.6231673  19.5032753  47.1726493   4.3221673  19.3342753  46.4686493
   5.7921673  21.5112753  36.4706493   6.2821673  22.2282753  36.3936493
   5.0021673  21.7722753  36.2076493   5.7481673  21.6552753  36.4206493
   7.1061673  29.3892753  48.3806493   7.5901673  30.1072753  48.4786493
   7.5001673  28.9622753  47.7296493   7.2361673  29.4322753  48.2986493
   2.3741673  22.9812753  42.1956493   2.8541673  23.6802753  42.4036493
   2.7471673  22.3342753  42.6466493   2.5001673  22.9892753  42.2926493
   4.5631673  26.1502753  34.4696493   4.5551673  26.8722753  33.9796493
   3.9241673  26.2852753  35.0466493   4.4681673  26.2772753  34.4826493
   9.5351673  30.0202753  38.4506493   9.8911673  29.6702753  39.1656493
   9.5271673  29.3592753  37.8806493   9.5871673  29.8702753  38.4716493
   5.5801673  33.0862753  42.2946493   4.9771673  32.7902753  41.7376493
   6.1251673  33.5382753  41.7856493   5.5711673  33.1092753  42.1366493
   5.5931673  29.9372753  41.6946493   4.7961673  30.1612753  41.9686493
   5.8511673  29.3432753  42.2796493   5.5131673  29.8822753  41.8216493
   1.7771673  34.2652753  34.5446493   2.3991673  34.4282753  35.1346493
   1.8131673  34.9562753  34.0126493   1.8741673  34.3912753  34.5536493
   8.8531673  27.9352753  46.5406493   8.9081673  28.0602753  45.6786493
   9.6061673  28.2552753  46.8426493   8.9721673  28.0002753  46.4576493
   5.0441673  33.2842753  50.8176493   5.2081673  33.5672753  51.6266493
   5.3071673  33.9452753  50.3126493   5.1071673  33.4242753  50.8626493
   9.8851673  18.2332753  49.5276493   9.2481673  17.8332753  49.0856493
   9.9111673  17.8022753  50.2856493   9.7951673  18.1112753  49.5736493
   4.5841673  27.7412753  46.1406493   4.4291673  28.3512753  46.7446493
   5.1181673  27.1832753  46.5466493   4.6401673  27.7492753  46.2896493
   2.9681673  26.1412753  36.7986493   3.0271673  26.7912753  37.3776493
   2.7791673  25.4452753  37.2896493   2.9491673  26.1342753  36.9566493
   8.1941673  30.4702753  42.6676493   7.7151673  30.7682753  42.0016493
   7.8381673  29.6942753  42.8456493   8.0711673  30.3992753  42.5956493
  11.8861673  34.6362753  34.6076493  12.5801673  34.1692753  34.3596493
  11.3471673  34.0382753  34.9446493  11.9091673  34.4782753  34.6206493
   9.1251673  27.4122753  43.7866493   9.1181673  26.6362753  44.1846493
   8.2841673  27.6462753  43.7796493   9.0001673  27.3322753  43.8446493
  10.3811673  27.4832753  41.2236493  10.0951673  27.8842753  41.9436493
  11.2411673  27.4212753  41.3506493  10.4661673  27.5332753  41.3486493
   8.0431673  21.4072753  49.7636493   7.5181673  21.8662753  50.2876493
   7.6821673  20.6122753  49.7576493   7.9121673  21.3572753  49.8396493
  11.5121673  33.1162753  41.7526493  11.8021673  33.3732753  40.9716493
  12.2071673  33.2122753  42.2716493  11.6581673  33.1682753  41.7136493
   6.5351673  24.9762753  49.8396493   6.6081673  25.0802753  50.7026493
   5.9011673  25.5342753  49.6186493   6.4521673  25.0742753  49.9346493
   8.8031673  25.2952753  48.2046493   9.1221673  26.0812753  48.4076493
   8.4331673  25.0252753  48.9476493   8.7961673  25.3712753  48.3446493
   8.1171673  31.7192753  33.7346493   8.4511673  30.9132753  33.7696493
   7.3621673  31.6472753  34.1646493   8.0551673  31.5892753  33.8036493
   8.5991673  23.5532753  39.3936493   7.8541673  23.2302753  39.7116493
   8.6011673  24.3792753  39.6736493   8.4891673  23.6272753  39.4816493
  11.5011673  25.8372753  50.9396493  11.4491673  25.4962753  50.1386493
  12.2381673  26.3042753  50.9176493  11.6021673  25.8562753  50.8176493
  11.0391673  29.5132753  47.1456493  11.6671673  28.9642753  46.8896493
  10.9781673  30.0782753  46.4836493  11.1231673  29.5162753  47.0096493
   5.4911673  29.5942753  33.1376493   6.1751673  29.0802753  32.9686493
   5.0741673  29.6402753  32.3726493   5.5301673  29.5252753  32.9996493
   7.5111673  19.8832753  46.8546493   8.2551673  20.3352753  46.7916493
   6.9451673  20.3532753  46.3856493   7.5381673  20.0202753  46.7766493
   2.6891673  27.1672753  43.9326493   3.1651673  27.5412753  44.5606493
   1.8661673  27.3012753  44.1916493   2.6381673  27.2422753  44.0636493
   8.7961673  17.8632753  44.5246493   8.5161673  18.6882753  44.4806493
   9.5121673  17.9162753  45.0206493   8.8611673  17.9932753  44.5916493
   4.4451673  29.4222753  49.5386493   5.2021673  29.7082753  49.2126493
   3.8981673  29.4742753  48.8606493   4.4761673  29.4722753  49.3896493
   8.3541673  31.9722753  48.0426493   8.7001673  32.2422753  48.7966493
   8.6481673  32.5542753  47.4626493   8.4491673  32.0982753  48.0686493
  10.2171673  24.1182753  33.3816493  10.5951673  24.7952753  32.9816493
   9.3751673  24.3422753  33.4126493  10.1481673  24.2512753  33.3266493
   5.6761673  22.7332753  48.2066493   5.0281673  23.2032753  48.5546493
   6.2411673  22.6442753  48.8656493   5.6641673  22.7892753  48.3556493
   5.3641673  24.2702753  44.5046493   5.6661673  24.6902753  45.2076493
   5.4001673  23.4302753  44.7366493   5.4141673  24.2082753  44.6426493
   2.7891673  34.4372753  48.4296493   3.2671673  33.8372753  48.0136493
   2.4381673  33.9942753  49.0946493   2.8081673  34.2832753  48.4666493
   7.9121673  23.7172753  36.7566493   8.1191673  23.5162753  37.5806493
   8.6681673  23.9852753  36.4146493   8.0541673  23.7272753  36.8276493
   8.9341673  19.8002753  38.2306493   8.2201673  19.3292753  38.4016493
   8.7721673  20.1412753  37.4446493   8.8051673  19.7812753  38.1396493
   9.3771673  27.7442753  36.6106493   9.8531673  27.0152753  36.5626493
   8.5561673  27.4582753  36.5346493   9.3261673  27.5942753  36.5916493
   2.8481673  29.6562753  47.4496493   2.0531673  29.5922753  47.8006493
   2.9191673  30.5032753  47.2546493   2.7411673  29.7712753  47.4726493
   5.5931673  28.9112753  38.9656493   5.6691673  29.2522753  39.7646493
   5.7621673  28.0642753  39.0866493   5.6291673  28.8362753  39.1016493
   3.1151673  28.1852753  38.5306493   2.8171673  27.8702753  39.2876493
   3.8101673  28.6582753  38.7656493   3.1741673  28.2082753  38.6776493
   3.3371673  32.3032753  46.5576493   4.0241673  32.1892753  47.0826493
   3.4711673  33.0942753  46.2136493   3.4581673  32.4032753  46.5846493
  11.5131673  24.9122753  48.3686493  10.6581673  24.7902753  48.4946493
  11.6661673  24.5172753  47.6056493  11.4091673  24.8352753  48.2746493
   6.0261673  25.5772753  46.9446493   5.7711673  24.8582753  47.3666493
   6.8471673  25.6932753  47.2146493   6.1101673  25.4882753  47.0466493
   3.9601673  26.7672753  50.1316493   4.2831673  27.4532753  49.6996493
   3.2561673  27.0902753  50.5336493   3.9031673  26.9162753  50.1266493
   7.0441673  35.1412753  41.0606493   6.5931673  35.7842753  41.4396493
   7.7521673  35.0622753  41.5656493   7.0821673  35.2242753  41.1916493
   3.7451673  30.2312753  43.9906493   3.0511673  30.6332753  44.3336493
   4.4221673  30.6642753  44.3296493   3.7421673  30.3542753  44.0916493
   9.1221673  32.8242753  50.5706493   9.8981673  32.4342753  50.6536493
   8.6531673  32.4882753  51.2256493   9.1671673  32.7172753  50.6796493
  10.1471673  24.8572753  36.0526493  10.2501673  24.7992753  35.1886493
  10.8881673  24.5252753  36.3706493  10.2721673  24.8002753  35.9716493
   4.0671673  31.8222753  37.1596493   3.8621673  32.6552753  37.0006493
   3.2921673  31.4402753  37.2816493   3.9221673  31.8892753  37.1546493
   9.2491673  25.0032753  45.4086493   9.2471673  24.1402753  45.5326493
   9.3161673  25.3272753  46.2156493   9.2591673  24.9232753  45.5456493
   5.1281673  19.8032753  49.1906493   5.2201673  20.5152753  49.6846493
   4.4911673  19.3582753  49.5876493   5.0471673  19.8422753  49.3226493
   4.1221673  19.9932753  40.0446493   3.4221673  20.5112753  39.9886493
   4.1601673  19.6132753  39.2606493   4.0241673  20.0142753  39.9206493
   7.7201673  20.5092753  42.8446493   8.5751673  20.6082753  42.9896493
   7.3511673  21.0622753  43.4096493   7.7921673  20.6062753  42.9496493
   8.0241673  25.7892753  41.3356493   8.6901673  26.3302753  41.4956493
   7.6791673  26.1002753  40.5966493   8.0711673  25.9152753  41.2506493
   8.3371673  33.8552753  37.1426493   8.1631673  33.2012753  37.6926493
   9.0501673  33.5842753  36.7196493   8.4171673  33.7182753  37.1616493
  11.1951673  18.3472753  46.0006493  11.1431673  18.3032753  46.8706493
  11.8821673  17.8442753  45.8106493  11.2891673  18.2672753  46.1006493
   3.2801673  20.4602753  43.0456493   2.5431673  20.0062753  43.1586493
   3.8511673  20.0582753  43.5686493   3.2551673  20.3332753  43.1396493
   6.0121673  31.3082753  44.8336493   6.2181673  31.6092753  45.6256493
   5.9511673  32.0302753  44.3486493   6.0331673  31.4592753  44.8786493
   5.5461673  35.5222753  49.0796493   4.7931673  35.5042753  48.6386493
   5.7141673  36.3742753  49.1636493   5.4601673  35.6452753  49.0266493
  10.8241673  29.9472753  44.2916493  10.7921673  29.0852753  44.1566493
  10.1311673  30.2492753  43.8576493  10.7171673  29.8642753  44.2076493
   8.9291673  33.2072753  43.0886493   9.4561673  33.1242753  42.3976493
   8.5381673  32.4292753  43.1426493   8.9491673  33.0802753  42.9946493
   5.4431673  18.6512753  42.2966493   6.1131673  19.1952753  42.4236493
   4.9401673  19.0752753  41.7236493   5.4681673  18.7942753  42.2306493
   4.8021673  24.4592753  39.7896493   5.3531673  23.8522753  40.0896493
   4.3771673  24.7222753  40.5046493   4.8211673  24.4082753  39.9386493
   6.7721673  26.2902753  36.3516493   6.8401673  25.4402753  36.5326493
   5.9491673  26.3762753  36.0736493   6.6601673  26.1772753  36.3376493
   9.8511673  35.2452753  32.7696493  10.4881673  35.1112753  33.3506493
   9.5101673  34.4512753  32.6526493   9.8951673  35.1082753  32.8376493
  10.0461673  27.6632753  49.5026493  10.6801673  27.4932753  50.0766493
  10.4631673  28.0662753  48.8506493  10.2011673  27.6982753  49.4916493
   5.9261673  31.5102753  35.0916493   5.6751673  31.3822753  35.9176493
   5.6091673  30.8152753  34.6706493   5.8421673  31.3892753  35.1516493
  10.6711673  22.2272753  50.2406493  10.4751673  22.8712753  50.7956493
   9.9491673  21.7372753  50.2326493  10.5361673  22.2502753  50.3216493
  10.5701673  23.1682753  43.2116493   9.7371673  23.4182753  43.1396493
  10.5141673  22.3282753  43.4406493  10.4391673  23.0812753  43.2346493
   7.4571673  27.7742753  50.8576493   8.3281673  27.7382753  50.8216493
   7.2381673  28.1942753  50.1256493   7.5541673  27.8302753  50.7446493
   2.8121673  29.7182753  34.5216493   3.5291673  29.3712753  34.1656493
   2.7781673  30.5182753  34.1736493   2.9131673  29.7852753  34.4176493
   4.2211673  18.3592753  18.7604083   3.9761673  18.8472753  18.0804083
   5.0841673  18.2862753  18.6604083   4.3121673  18.4202753  18.6454083
   4.0301673  25.2752753  23.4314083   3.5061673  25.8712753  23.7944083
   4.4271673  24.9072753  24.1154083   4.0111673  25.3092753  23.5864083
  10.1741673  32.7162753  16.4024083  10.8751673  32.1972753  16.3984083
   9.5871673  32.2712753  15.9334083  10.1911673  32.5732753  16.3324083
   6.7011673  26.3422753  20.1074083   6.7811673  26.3462753  19.2384083
   6.1171673  25.7102753  20.2564083   6.6261673  26.2492753  20.0014083
   3.5151673  24.3322753  29.5274083   2.6671673  24.2332753  29.3494083
   3.5441673  25.0772753  29.9814083   3.3941673  24.4282753  29.5684083
   8.0731673  17.2922753  28.6414083   7.9151673  18.0612753  28.2594083
   7.3011673  17.0722753  28.9854083   7.9351673  17.3732753  28.6364083
   5.5351673  21.9332753  13.1554083   5.0851673  22.6142753  13.4624083
   5.6491673  21.4292753  13.8584083   5.4861673  21.9592753  13.3044083
   5.6341673  34.2742753  15.2594083   6.3611673  34.7462753  15.3614083
   5.8631673  33.4802753  15.5394083   5.7761673  34.2272753  15.3164083
   3.8021673  34.6662753  17.2494083   4.0161673  35.1932753  17.9114083
   4.5691673  34.4922753  16.8704083   3.9471673  34.7182753  17.2914083
  10.9291673  21.9062753  19.4504083  10.5831673  22.5842753  19.8764083
  10.2931673  21.3082753  19.4664083  10.7841673  21.9182753  19.5154083
   6.2411673  34.6762753  25.5544083   6.9851673  35.1322753  25.5444083
   6.1201673  34.4622753  24.7174083   6.3331673  34.7122753  25.4294083
   2.4581673  18.6222753  30.2984083   2.6361673  17.8132753  30.0234083
   2.3151673  19.0632753  29.5594083   2.4631673  18.5682753  30.1484083
   3.0521673  23.5482753  19.0714083   3.3391673  23.3162753  18.2814083
   3.7841673  23.6272753  19.5404083   3.2021673  23.5252753  19.0244083
   3.7741673  23.8872753  14.1924083   4.0551673  24.6752753  14.4414083
   2.9981673  24.0522753  13.8294083   3.7011673  24.0282753  14.1754083
   7.8151673  35.8612753  15.6594083   8.4801673  35.7132753  15.1144083
   8.1751673  35.7782753  16.4494083   7.9671673  35.8272753  15.6954083
  10.6041673  20.2292753  24.8194083  11.3611673  20.3012753  24.3914083
  10.6671673  19.4562753  25.2184083  10.7251673  20.1262753  24.8144083
   5.4951673  31.8612753  29.2584083   5.4611673  32.2432753  30.0424083
   6.3491673  31.8192753  29.0874083   5.6161673  31.9112753  29.3494083
   2.6331673  32.0582753  14.0084083   2.4521673  32.6032753  14.6654083
   3.3991673  32.3482753  13.7074083   2.7191673  32.1822753  14.0614083
   6.1401673  19.9542753  15.0624083   6.6801673  19.2722753  15.1384083
   6.2021673  20.3522753  15.8364083   6.2291673  19.9122753  15.1884083
   3.3981673  22.3302753  16.3764083   2.8901673  21.6682753  16.1224083
   3.4501673  22.8342753  15.6664083   3.3311673  22.3072753  16.2344083
   3.9471673  35.0252753  26.7564083   4.7151673  34.9452753  26.3504083
   3.3641673  34.9042753  26.1184083   3.9741673  34.9952753  26.6024083
   3.3981673  19.2712753  16.2674083   2.9431673  18.8692753  15.6414083
   4.1711673  19.4262753  15.8924083   3.4451673  19.2352753  16.1194083
  10.2241673  35.6282753  19.6574083   9.7691673  36.3452753  19.8584083
   9.6101673  35.0572753  19.4154083  10.0661673  35.6502753  19.6514083
   1.9961673  21.6382753  20.7894083   2.0701673  22.2062753  20.1314083
   2.1171673  22.1302753  21.4994083   2.0241673  21.7952753  20.7974083
   7.2211673  31.4732753  19.2014083   7.9221673  30.9912753  19.3904083
   6.5611673  30.9042753  19.2464083   7.2271673  31.3182753  19.2354083
   5.7881673  21.8082753  26.6774083   5.6931673  22.1272753  27.4834083
   5.1951673  21.1692753  26.6394083   5.6861673  21.7602753  26.7914083
   6.4871673  28.5272753  24.8824083   5.9731673  28.1152753  25.4534083
   6.3611673  29.3712753  25.0634083   6.3931673  28.5912753  24.9934083
   7.0441673  17.7522753  19.5134083   7.0931673  17.4342753  20.3244083
   7.3671673  17.1082753  19.0204083   7.0991673  17.6102753  19.5604083
   9.5081673  21.9882753  27.8214083  10.2801673  21.7632753  28.1584083
   9.0331673  22.2052753  28.5214083   9.5521673  21.9872753  27.9744083
   9.7401673  28.9662753  15.0094083   9.8591673  28.6792753  15.8244083
  10.5471673  28.9872753  14.6794083   9.8761673  28.9272753  15.0814083
  11.9741673  33.4752753  29.2634083  11.2921673  33.7852753  28.8164083
  11.6051673  33.0172753  29.9084083  11.8181673  33.4532753  29.2924083
   7.6351673  25.5032753  14.5944083   7.4151673  26.2342753  14.1724083
   7.1871673  25.5542753  15.3414083   7.5361673  25.6182753  14.6424083
  11.8221673  20.3642753  14.0474083  11.1601673  19.7962753  14.0704083
  11.6291673  20.8762753  13.3674083  11.6961673  20.3562753  13.9504083
  12.1451673  24.7422753  26.6034083  12.3601673  23.9422753  26.3274083
  11.2951673  24.8022753  26.4144083  12.0511673  24.6332753  26.5344083
   9.8241673  19.9222753  16.3264083  10.5701673  19.5152753  16.5254083
  10.0871673  20.6372753  15.9014083   9.9731673  19.9682753  16.2934083
   3.7671673  32.4082753  20.9024083   3.2441673  33.0422753  20.6094083
   4.0771673  32.0442753  20.1734083   3.7351673  32.4482753  20.7514083
   6.2781673  22.2102753  21.3994083   6.6221673  22.3622753  22.1864083
   5.8251673  21.4722753  21.5124083   6.2621673  22.1232753  21.5324083
   9.8081673  33.8572753  27.3534083   9.1371673  34.3712753  27.5714083
   9.8711673  33.9572753  26.4894083   9.7181673  33.9482753  27.2584083
   7.5991673  23.5422753  23.9534083   6.9371673  23.8702753  24.4164083
   7.7861673  24.1762753  23.3844083   7.5291673  23.6842753  23.9374083
   4.2441673  19.4482753  27.3824083   4.3931673  18.6232753  27.1394083
   4.6231673  19.5032753  28.1664083   4.3221673  19.3342753  27.4624083
   5.7921673  21.5112753  17.4644083   6.2821673  22.2282753  17.3874083
   5.0021673  21.7722753  17.2014083   5.7481673  21.6552753  17.4144083
   7.1061673  29.3892753  29.3744083   7.5901673  30.1072753  29.4724083
   7.5001673  28.9622753  28.7234083   7.2361673  29.4322753  29.2924083
   2.3741673  22.9812753  23.1894083   2.8541673  23.6802753  23.3974083
   2.7471673  22.3342753  23.6404083   2.5001673  22.9892753  23.2864083
   4.5631673  26.1502753  15.4634083   4.5551673  26.8722753  14.9734083
   3.9241673  26.2852753  16.0404083   4.4681673  26.2772753  15.4764083
   9.5351673  30.0202753  19.4444083   9.8911673  29.6702753  20.1594083
   9.5271673  29.3592753  18.8744083   9.5871673  29.8702753  19.4654083
   5.5801673  33.0862753  23.2884083   4.9771673  32.7902753  22.7314083
   6.1251673  33.5382753  22.7794083   5.5711673  33.1092753  23.1304083
   5.5931673  29.9372753  22.6884083   4.7961673  30.1612753  22.9624083
   5.8511673  29.3432753  23.2734083   5.5131673  29.8822753  22.8154083
   1.7771673  34.2652753  15.5384083   2.3991673  34.4282753  16.1284083
   1.8131673  34.9562753  15.0064083   1.8741673  34.3912753  15.5474083
   8.8531673  27.9352753  27.5344083   8.9081673  28.0602753  26.6724083
   9.6061673  28.2552753  27.8364083   8.9721673  28.0002753  27.4514083
   5.0441673  33.2842753  31.8114083   5.2081673  33.5672753  32.6204083
   5.3071673  33.9452753  31.3064083   5.1071673  33.4242753  31.8564083
   9.8851673  18.2332753  30.5214083   9.2481673  17.8332753  30.0794083
   9.9111673  17.8022753  31.2794083   9.7951673  18.1112753  30.5674083
   4.5841673  27.7412753  27.1344083   4.4291673  28.3512753  27.7384083
   5.1181673  27.1832753  27.5404083   4.6401673  27.7492753  27.2834083
   2.9681673  26.1412753  17.7924083   3.0271673  26.7912753  18.3714083
   2.7791673  25.4452753  18.2834083   2.9491673  26.1342753  17.9504083
   8.1941673  30.4702753  23.6614083   7.7151673  30.7682753  22.9954083
   7.8381673  29.6942753  23.8394083   8.0711673  30.3992753  23.5894083
  11.8861673  34.6362753  15.6014083  12.5801673  34.1692753  15.3534083
  11.3471673  34.0382753  15.9384083  11.9091673  34.4782753  15.6144083
   9.1251673  27.4122753  24.7804083   9.1181673  26.6362753  25.1784083
   8.2841673  27.6462753  24.7734083   9.0001673  27.3322753  24.8384083
  10.3811673  27.4832753  22.2174083  10.0951673  27.8842753  22.9374083
  11.2411673  27.4212753  22.3444083  10.4661673  27.5332753  22.3424083
   8.0431673  21.4072753  30.7574083   7.5181673  21.8662753  31.2814083
   7.6821673  20.6122753  30.7514083   7.9121673  21.3572753  30.8334083
  11.5121673  33.1162753  22.7464083  11.8021673  33.3732753  21.9654083
  12.2071673  33.2122753  23.2654083  11.6581673  33.1682753  22.7074083
   6.5351673  24.9762753  30.8334083   6.6081673  25.0802753  31.6964083
   5.9011673  25.5342753  30.6124083   6.4521673  25.0742753  30.9284083
   8.8031673  25.2952753  29.1984083   9.1221673  26.0812753  29.4014083
   8.4331673  25.0252753  29.9414083   8.7961673  25.3712753  29.3384083
   8.1171673  31.7192753  14.7284083   8.4511673  30.9132753  14.7634083
   7.3621673  31.6472753  15.1584083   8.0551673  31.5892753  14.7974083
   8.5991673  23.5532753  20.3874083   7.8541673  23.2302753  20.7054083
   8.6011673  24.3792753  20.6674083   8.4891673  23.6272753  20.4754083
  11.5011673  25.8372753  31.9334083  11.4491673  25.4962753  31.1324083
  12.2381673  26.3042753  31.9114083  11.6021673  25.8562753  31.8114083
  11.0391673  29.5132753  28.1394083  11.6671673  28.9642753  27.8834083
  10.9781673  30.0782753  27.4774083  11.1231673  29.5162753  28.0034083
   5.4911673  29.5942753  14.1314083   6.1751673  29.0802753  13.9624083
   5.0741673  29.6402753  13.3664083   5.5301673  29.5252753  13.9934083
   7.5111673  19.8832753  27.8484083   8.2551673  20.3352753  27.7854083
   6.9451673  20.3532753  27.3794083   7.5381673  20.0202753  27.7704083
   2.6891673  27.1672753  24.9264083   3.1651673  27.5412753  25.5544083
   1.8661673  27.3012753  25.1854083   2.6381673  27.2422753  25.0574083
   8.7961673  17.8632753  25.5184083   8.5161673  18.6882753  25.4744083
   9.5121673  17.9162753  26.0144083   8.8611673  17.9932753  25.5854083
   4.4451673  29.4222753  30.5324083   5.2021673  29.7082753  30.2064083
   3.8981673  29.4742753  29.8544083   4.4761673  29.4722753  30.3834083
   8.3541673  31.9722753  29.0364083   8.7001673  32.2422753  29.7904083
   8.6481673  32.5542753  28.4564083   8.4491673  32.0982753  29.0624083
  10.2171673  24.1182753  14.3754083  10.5951673  24.7952753  13.9754083
   9.3751673  24.3422753  14.4064083  10.1481673  24.2512753  14.3204083
   5.6761673  22.7332753  29.2004083   5.0281673  23.2032753  29.5484083
   6.2411673  22.6442753  29.8594083   5.6641673  22.7892753  29.3494083
   5.3641673  24.2702753  25.4984083   5.6661673  24.6902753  26.2014083
   5.4001673  23.4302753  25.7304083   5.4141673  24.2082753  25.6364083
   2.7891673  34.4372753  29.4234083   3.2671673  33.8372753  29.0074083
   2.4381673  33.9942753  30.0884083   2.8081673  34.2832753  29.4604083
   7.9121673  23.7172753  17.7504083   8.1191673  23.5162753  18.5744083
   8.6681673  23.9852753  17.4084083   8.0541673  23.7272753  17.8214083
   8.9341673  19.8002753  19.2244083   8.2201673  19.3292753  19.3954083
   8.7721673  20.1412753  18.4384083   8.8051673  19.7812753  19.1334083
   9.3771673  27.7442753  17.6044083   9.8531673  27.0152753  17.5564083
   8.5561673  27.4582753  17.5284083   9.3261673  27.5942753  17.5854083
   2.8481673  29.6562753  28.4434083   2.0531673  29.5922753  28.7944083
   2.9191673  30.5032753  28.2484083   2.7411673  29.7712753  28.4664083
   5.5931673  28.9112753  19.9594083   5.6691673  29.2522753  20.7584083
   5.7621673  28.0642753  20.0804083   5.6291673  28.8362753  20.0954083
   3.1151673  28.1852753  19.5244083   2.8171673  27.8702753  20.2814083
   3.8101673  28.6582753  19.7594083   3.1741673  28.2082753  19.6714083
   3.3371673  32.3032753  27.5514083   4.0241673  32.1892753  28.0764083
   3.4711673  33.0942753  27.2074083   3.4581673  32.4032753  27.5784083
  11.5131673  24.9122753  29.3624083  10.6581673  24.7902753  29.4884083
  11.6661673  24.5172753  28.5994083  11.4091673  24.8352753  29.2684083
   6.0261673  25.5772753  27.9384083   5.7711673  24.8582753  28.3604083
   6.8471673  25.6932753  28.2084083   6.1101673  25.4882753  28.0404083
   3.9601673  26.7672753  31.1254083   4.2831673  27.4532753  30.6934083
   3.2561673  27.0902753  31.5274083   3.9031673  26.9162753  31.1204083
   7.0441673  35.1412753  22.0544083   6.5931673  35.7842753  22.4334083
   7.7521673  35.0622753  22.5594083   7.0821673  35.2242753  22.1854083
   3.7451673  30.2312753  24.9844083   3.0511673  30.6332753  25.3274083
   4.4221673  30.6642753  25.3234083   3.7421673  30.3542753  25.0854083
   9.1221673  32.8242753  31.5644083   9.8981673  32.4342753  31.6474083
   8.6531673  32.4882753  32.2194083   9.1671673  32.7172753  31.6734083
  10.1471673  24.8572753  17.0464083  10.2501673  24.7992753  16.1824083
  10.8881673  24.5252753  17.3644083  10.2721673  24.8002753  16.9654083
   4.0671673  31.8222753  18.1534083   3.8621673  32.6552753  17.9944083
   3.2921673  31.4402753  18.2754083   3.9221673  31.8892753  18.1484083
   9.2491673  25.0032753  26.4024083   9.2471673  24.1402753  26.5264083
   9.3161673  25.3272753  27.2094083   9.2591673  24.9232753  26.5394083
   5.1281673  19.8032753  30.1844083   5.2201673  20.5152753  30.6784083
   4.4911673  19.3582753  30.5814083   5.0471673  19.8422753  30.3164083
   4.1221673  19.9932753  21.0384083   3.4221673  20.5112753  20.9824083
   4.1601673  19.6132753  20.2544083   4.0241673  20.0142753  20.9144083
   7.7201673  20.5092753  23.8384083   8.5751673  20.6082753  23.9834083
   7.3511673  21.0622753  24.4034083   7.7921673  20.6062753  23.9434083
   8.0241673  25.7892753  22.3294083   8.6901673  26.3302753  22.4894083
   7.6791673  26.1002753  21.5904083   8.0711673  25.9152753  22.2444083
   8.3371673  33.8552753  18.1364083   8.1631673  33.2012753  18.6864083
   9.0501673  33.5842753  17.7134083   8.4171673  33.7182753  18.1554083
  11.1951673  18.3472753  26.9944083  11.1431673  18.3032753  27.8644083
  11.8821673  17.8442753  26.8044083  11.2891673  18.2672753  27.0944083
   3.2801673  20.4602753  24.0394083   2.5431673  20.0062753  24.1524083
   3.8511673  20.0582753  24.5624083   3.2551673  20.3332753  24.1334083
   6.0121673  31.3082753  25.8274083   6.2181673  31.6092753  26.6194083
   5.9511673  32.0302753  25.3424083   6.0331673  31.4592753  25.8724083
   5.5461673  35.5222753  30.0734083   4.7931673  35.5042753  29.6324083
   5.7141673  36.3742753  30.1574083   5.4601673  35.6452753  30.0204083
  10.8241673  29.9472753  25.2854083  10.7921673  29.0852753  25.1504083
  10.1311673  30.2492753  24.8514083  10.7171673  29.8642753  25.2014083
   8.9291673  33.2072753  24.0824083   9.4561673  33.1242753  23.3914083
   8.5381673  32.4292753  24.1364083   8.9491673  33.0802753  23.9884083
   5.4431673  18.6512753  23.2904083   6.1131673  19.1952753  23.4174083
   4.9401673  19.0752753  22.7174083   5.4681673  18.7942753  23.2244083
   4.8021673  24.4592753  20.7834083   5.3531673  23.8522753  21.0834083
   4.3771673  24.7222753  21.4984083   4.8211673  24.4082753  20.9324083
   6.7721673  26.2902753  17.3454083   6.8401673  25.4402753  17.5264083
   5.9491673  26.3762753  17.0674083   6.6601673  26.1772753  17.3314083
   9.8511673  35.2452753  13.7634083  10.4881673  35.1112753  14.3444083
   9.5101673  34.4512753  13.6464083   9.8951673  35.1082753  13.8314083
  10.0461673  27.6632753  30.4964083  10.6801673  27.4932753  31.0704083
  10.4631673  28.0662753  29.8444083  10.2011673  27.6982753  30.4854083
   5.9261673  31.5102753  16.0854083   5.6751673  31.3822753  16.9114083
   5.6091673  30.8152753  15.6644083   5.8421673  31.3892753  16.1454083
  10.6711673  22.2272753  31.2344083  10.4751673  22.8712753  31.7894083
   9.9491673  21.7372753  31.2264083  10.5361673  22.2502753  31.3154083
  10.5701673  23.1682753  24.2054083   9.7371673  23.4182753  24.1334083
  10.5141673  22.3282753  24.4344083  10.4391673  23.0812753  24.2284083
   7.4571673  27.7742753  31.8514083   8.3281673  27.7382753  31.8154083
   7.2381673  28.1942753  31.1194083   7.5541673  27.8302753  31.7384083
   2.8121673  29.7182753  15.5154083   3.5291673  29.3712753  15.1594083
   2.7781673  30.5182753  15.1674083   2.9131673  29.7852753  15.4114083
   4.0301673  25.2752753   4.4251673   3.5061673  25.8712753   4.7881673
   4.4271673  24.9072753   5.1091673   4.0111673  25.3092753   4.5801673
   3.5151673  24.3322753  10.5211673   2.6671673  24.2332753  10.3431673
   3.5441673  25.0772753  10.9751673   3.3941673  24.4282753  10.5621673
   8.0731673  17.2922753   9.6351673   7.9151673  18.0612753   9.2531673
   7.3011673  17.0722753   9.9791673   7.9351673  17.3732753   9.6301673
   6.2411673  34.6762753   6.5481673   6.9851673  35.1322753   6.5381673
   6.1201673  34.4622753   5.7111673   6.3331673  34.7122753   6.4231673
   2.4581673  18.6222753  11.2921673   2.6361673  17.8132753  11.0171673
   2.3151673  19.0632753  10.5531673   2.4631673  18.5682753  11.1421673
  10.6041673  20.2292753   5.8131673  11.3611673  20.3012753   5.3851673
  10.6671673  19.4562753   6.2121673  10.7251673  20.1262753   5.8081673
   5.4951673  31.8612753  10.2521673   5.4611673  32.2432753  11.0361673
   6.3491673  31.8192753  10.0811673   5.6161673  31.9112753  10.3431673
   3.9471673  35.0252753   7.7501673   4.7151673  34.9452753   7.3441673
   3.3641673  34.9042753   7.1121673   3.9741673  34.9952753   7.5961673
   5.7881673  21.8082753   7.6711673   5.6931673  22.1272753   8.4771673
   5.1951673  21.1692753   7.6331673   5.6861673  21.7602753   7.7851673
   6.4871673  28.5272753   5.8761673   5.9731673  28.1152753   6.4471673
   6.3611673  29.3712753   6.0571673   6.3931673  28.5912753   5.9871673
   9.5081673  21.9882753   8.8151673  10.2801673  21.7632753   9.1521673
   9.0331673  22.2052753   9.5151673   9.5521673  21.9872753   8.9681673
  11.9741673  33.4752753  10.2571673  11.2921673  33.7852753   9.8101673
  11.6051673  33.0172753  10.9021673  11.8181673  33.4532753  10.2861673
  12.1451673  24.7422753   7.5971673  12.3601673  23.9422753   7.3211673
  11.2951673  24.8022753   7.4081673  12.0511673  24.6332753   7.5281673
   6.2781673  22.2102753   2.3931673   6.6221673  22.3622753   3.1801673
   5.8251673  21.4722753   2.5061673   6.2621673  22.1232753   2.5261673
   9.8081673  33.8572753   8.3471673   9.1371673  34.3712753   8.5651673
   9.8711673  33.9572753   7.4831673   9.7181673  33.9482753   8.2521673
   7.5991673  23.5422753   4.9471673   6.9371673  23.8702753   5.4101673
   7.7861673  24.1762753   4.3781673   7.5291673  23.6842753   4.9311673
   4.2441673  19.4482753   8.3761673   4.3931673  18.6232753   8.1331673
   4.6231673  19.5032753   9.1601673   4.3221673  19.3342753   8.4561673
   7.1061673  29.3892753  10.3681673   7.5901673  30.1072753  10.4661673
   7.5001673  28.9622753   9.7171673   7.2361673  29.4322753  10.2861673
   2.3741673  22.9812753   4.1831673   2.8541673  23.6802753   4.3911673
   2.7471673  22.3342753   4.6341673   2.5001673  22.9892753   4.2801673
   5.5801673  33.0862753   4.2821673   4.9771673  32.7902753   3.7251673
   6.1251673  33.5382753   3.7731673   5.5711673  33.1092753   4.1241673
   5.5931673  29.9372753   3.6821673   4.7961673  30.1612753   3.9561673
   5.8511673  29.3432753   4.2671673   5.5131673  29.8822753   3.8091673
   8.8531673  27.9352753   8.5281673   8.9081673  28.0602753   7.6661673
   9.6061673  28.2552753   8.8301673   8.9721673  28.0002753   8.4451673
   5.0441673  33.2842753  12.8051673   5.2081673  33.5672753  13.6141673
   5.3071673  33.9452753  12.3001673   5.1071673  33.4242753  12.8501673
   9.8851673  18.2332753  11.5151673   9.2481673  17.8332753  11.0731673
   9.9111673  17.8022753  12.2731673   9.7951673  18.1112753  11.5611673
   4.5841673  27.7412753   8.1281673   4.4291673  28.3512753   8.7321673
   5.1181673  27.1832753   8.5341673   4.6401673  27.7492753   8.2771673
   8.1941673  30.4702753   4.6551673   7.7151673  30.7682753   3.9891673
   7.8381673  29.6942753   4.8331673   8.0711673  30.3992753   4.5831673
   9.1251673  27.4122753   5.7741673   9.1181673  26.6362753   6.1721673
   8.2841673  27.6462753   5.7671673   9.0001673  27.3322753   5.8321673
  10.3811673  27.4832753   3.2111673  10.0951673  27.8842753   3.9311673
  11.2411673  27.4212753   3.3381673  10.4661673  27.5332753   3.3361673
   8.0431673  21.4072753  11.7511673   7.5181673  21.8662753  12.2751673
   7.6821673  20.6122753  11.7451673   7.9121673  21.3572753  11.8271673
  11.5121673  33.1162753   3.7401673  11.8021673  33.3732753   2.9591673
  12.2071673  33.2122753   4.2591673  11.6581673  33.1682753   3.7011673
   6.5351673  24.9762753  11.8271673   6.6081673  25.0802753  12.6901673
   5.9011673  25.5342753  11.6061673   6.4521673  25.0742753  11.9221673
   8.8031673  25.2952753  10.1921673   9.1221673  26.0812753  10.3951673
   8.4331673  25.0252753  10.9351673   8.7961673  25.3712753  10.3321673
  11.5011673  25.8372753  12.9271673  11.4491673  25.4962753  12.1261673
  12.2381673  26.3042753  12.9051673  11.6021673  25.8562753  12.8051673
  11.0391673  29.5132753   9.1331673  11.6671673  28.9642753   8.8771673
  10.9781673  30.0782753   8.4711673  11.1231673  29.5162753   8.9971673
   7.5111673  19.8832753   8.8421673   8.2551673  20.3352753   8.7791673
   6.9451673  20.3532753   8.3731673   7.5381673  20.0202753   8.7641673
   2.6891673  27.1672753   5.9201673   3.1651673  27.5412753   6.5481673
   1.8661673  27.3012753   6.1791673   2.6381673  27.2422753   6.0511673
   8.7961673  17.8632753   6.5121673   8.5161673  18.6882753   6.4681673
   9.5121673  17.9162753   7.0081673   8.8611673  17.9932753   6.5791673
   4.4451673  29.4222753  11.5261673   5.2021673  29.7082753  11.2001673
   3.8981673  29.4742753  10.8481673   4.4761673  29.4722753  11.3771673
   8.3541673  31.9722753  10.0301673   8.7001673  32.2422753  10.7841673
   8.6481673  32.5542753   9.4501673   8.4491673  32.0982753  10.0561673
   5.6761673  22.7332753  10.1941673   5.0281673  23.2032753  10.5421673
   6.2411673  22.6442753  10.8531673   5.6641673  22.7892753  10.3431673
   5.3641673  24.2702753   6.4921673   5.6661673  24.6902753   7.1951673
   5.4001673  23.4302753   6.7241673   5.4141673  24.2082753   6.6301673
   2.7891673  34.4372753  10.4171673   3.2671673  33.8372753  10.0011673
   2.4381673  33.9942753  11.0821673   2.8081673  34.2832753  10.4541673
   2.8481673  29.6562753   9.4371673   2.0531673  29.5922753   9.7881673
   2.9191673  30.5032753   9.2421673   2.7411673  29.7712753   9.4601673
   3.3371673  32.3032753   8.5451673   4.0241673  32.1892753   9.0701673
   3.4711673  33.0942753   8.2011673   3.4581673  32.4032753   8.5721673
  11.5131673  24.9122753  10.3561673  10.6581673  24.7902753  10.4821673
  11.6661673  24.5172753   9.5931673  11.4091673  24.8352753  10.2621673
   6.0261673  25.5772753   8.9321673   5.7711673  24.8582753   9.3541673
   6.8471673  25.6932753   9.2021673   6.1101673  25.4882753   9.0341673
   3.9601673  26.7672753  12.1191673   4.2831673  27.4532753  11.6871673
   3.2561673  27.0902753  12.5211673   3.9031673  26.9162753  12.1141673
   7.0441673  35.1412753   3.0481673   6.5931673  35.7842753   3.4271673
   7.7521673  35.0622753   3.5531673   7.0821673  35.2242753   3.1791673
   3.7451673  30.2312753   5.9781673   3.0511673  30.6332753   6.3211673
   4.4221673  30.6642753   6.3171673   3.7421673  30.3542753   6.0791673
   9.1221673  32.8242753  12.5581673   9.8981673  32.4342753  12.6411673
   8.6531673  32.4882753  13.2131673   9.1671673  32.7172753  12.6671673
   9.2491673  25.0032753   7.3961673   9.2471673  24.1402753   7.5201673
   9.3161673  25.3272753   8.2031673   9.2591673  24.9232753   7.5331673
   5.1281673  19.8032753  11.1781673   5.2201673  20.5152753  11.6721673
   4.4911673  19.3582753  11.5751673   5.0471673  19.8422753  11.3101673
   7.7201673  20.5092753   4.8321673   8.5751673  20.6082753   4.9771673
   7.3511673  21.0622753   5.3971673   7.7921673  20.6062753   4.9371673
   8.0241673  25.7892753   3.3231673   8.6901673  26.3302753   3.4831673
   7.6791673  26.1002753   2.5841673   8.0711673  25.9152753   3.2381673
  11.1951673  18.3472753   7.9881673  11.1431673  18.3032753   8.8581673
  11.8821673  17.8442753   7.7981673  11.2891673  18.2672753   8.0881673
   3.2801673  20.4602753   5.0331673   2.5431673  20.0062753   5.1461673
   3.8511673  20.0582753   5.5561673   3.2551673  20.3332753   5.1271673
   6.0121673  31.3082753   6.8211673   6.2181673  31.6092753   7.6131673
   5.9511673  32.0302753   6.3361673   6.0331673  31.4592753   6.8661673
   5.5461673  35.5222753  11.0671673   4.7931673  35.5042753  10.6261673
   5.7141673  36.3742753  11.1511673   5.4601673  35.6452753  11.0141673
  10.8241673  29.9472753   6.2791673  10.7921673  29.0852753   6.1441673
  10.1311673  30.2492753   5.8451673  10.7171673  29.8642753   6.1951673
   8.9291673  33.2072753   5.0761673   9.4561673  33.1242753   4.3851673
   8.5381673  32.4292753   5.1301673   8.9491673  33.0802753   4.9821673
   5.4431673  18.6512753   4.2841673   6.1131673  19.1952753   4.4111673
   4.9401673  19.0752753   3.7111673   5.4681673  18.7942753   4.2181673
   4.8021673  24.4592753   1.7771673   5.3531673  23.8522753   2.0771673
   4.3771673  24.7222753   2.4921673   4.8211673  24.4082753   1.9261673
  10.0461673  27.6632753  11.4901673  10.6801673  27.4932753  12.0641673
  10.4631673  28.0662753  10.8381673  10.2011673  27.6982753  11.4791673
  10.6711673  22.2272753  12.2281673  10.4751673  22.8712753  12.7831673
   9.9491673  21.7372753  12.2201673  10.5361673  22.2502753  12.3091673
  10.5701673  23.1682753   5.1991673   9.7371673  23.4182753   5.1271673
  10.5141673  22.3282753   5.4281673  10.4391673  23.0812753   5.2221673
   7.4571673  27.7742753  12.8451673   8.3281673  27.7382753  12.8091673
   7.2381673  28.1942753  12.1131673   7.5541673  27.8302753  12.7321673
   4.0301673   6.7971673  80.4501313   3.5061673   7.3931673  80.8131313
   4.4271673   6.4291673  81.1341313   4.0111673   6.8311673  80.6051313
  10.1741673  14.2381673  73.4211313  10.8751673  13.7191673  73.4171313
   9.5871673  13.7931673  72.9521313  10.1911673  14.0951673  73.3511313
   6.7011673   7.8641673  77.1261313   6.7811673   7.8681673  76.2571313
   6.1171673   7.2321673  77.2751313   6.6261673   7.7711673  77.0201313
   5.5351673   3.4551673  70.1741313   5.0851673   4.1361673  70.4811313
   5.6491673   2.9511673  70.8771313   5.4861673   3.4811673  70.3231313
   5.6341673  15.7961673  72.2781313   6.3611673  16.2681673  72.3801313
   5.8631673  15.0021673  72.5581313   5.7761673  15.7491673  72.3351313
   3.8021673  16.1881673  74.2681313   4.0161673  16.7151673  74.9301313
   4.5691673  16.0141673  73.8891313   3.9471673  16.2401673  74.3101313
  10.9291673   3.4281673  76.4691313  10.5831673   4.1061673  76.8951313
  10.2931673   2.8301673  76.4851313  10.7841673   3.4401673  76.5341313
   3.0521673   5.0701673  76.0901313   3.3391673   4.8381673  75.3001313
   3.7841673   5.1491673  76.5591313   3.2021673   5.0471673  76.0431313
   3.7741673   5.4091673  71.2111313   4.0551673   6.1971673  71.4601313
   2.9981673   5.5741673  70.8481313   3.7011673   5.5501673  71.1941313
   7.8151673  17.3831673  72.6781313   8.4801673  17.2351673  72.1331313
   8.1751673  17.3001673  73.4681313   7.9671673  17.3491673  72.7141313
   2.6331673  13.5801673  71.0271313   2.4521673  14.1251673  71.6841313
   3.3991673  13.8701673  70.7261313   2.7191673  13.7041673  71.0801313
   3.3981673   3.8521673  73.3951313   2.8901673   3.1901673  73.1411313
   3.4501673   4.3561673  72.6851313   3.3311673   3.8291673  73.2531313
  10.2241673  17.1501673  76.6761313   9.7691673  17.8671673  76.8771313
   9.6101673  16.5791673  76.4341313  10.0661673  17.1721673  76.6701313
   1.9961673   3.1601673  77.8081313   2.0701673   3.7281673  77.1501313
   2.1171673   3.6521673  78.5181313   2.0241673   3.3171673  77.8161313
   7.2211673  12.9951673  76.2201313   7.9221673  12.5131673  76.4091313
   6.5611673  12.4261673  76.2651313   7.2271673  12.8401673  76.2541313
   9.7401673  10.4881673  72.0281313   9.8591673  10.2011673  72.8431313
  10.5471673  10.5091673  71.6981313   9.8761673  10.4491673  72.1001313
   7.6351673   7.0251673  71.6131313   7.4151673   7.7561673  71.1911313
   7.1871673   7.0761673  72.3601313   7.5361673   7.1401673  71.6611313
   3.7671673  13.9301673  77.9211313   3.2441673  14.5641673  77.6281313
   4.0771673  13.5661673  77.1921313   3.7351673  13.9701673  77.7701313
   6.2781673   3.7321673  78.4181313   6.6221673   3.8841673  79.2051313
   5.8251673   2.9941673  78.5311313   6.2621673   3.6451673  78.5511313
   7.5991673   5.0641673  80.9721313   6.9371673   5.3921673  81.4351313
   7.7861673   5.6981673  80.4031313   7.5291673   5.2061673  80.9561313
   5.7921673   3.0331673  74.4831313   6.2821673   3.7501673  74.4061313
   5.0021673   3.2941673  74.2201313   5.7481673   3.1771673  74.4331313
   2.3741673   4.5031673  80.2081313   2.8541673   5.2021673  80.4161313
   2.7471673   3.8561673  80.6591313   2.5001673   4.5111673  80.3051313
   4.5631673   7.6721673  72.4821313   4.5551673   8.3941673  71.9921313
   3.9241673   7.8071673  73.0591313   4.4681673   7.7991673  72.4951313
   9.5351673  11.5421673  76.4631313   9.8911673  11.1921673  77.1781313
   9.5271673  10.8811673  75.8931313   9.5871673  11.3921673  76.4841313
   5.5801673  14.6081673  80.3071313   4.9771673  14.3121673  79.7501313
   6.1251673  15.0601673  79.7981313   5.5711673  14.6311673  80.1491313
   5.5931673  11.4591673  79.7071313   4.7961673  11.6831673  79.9811313
   5.8511673  10.8651673  80.2921313   5.5131673  11.4041673  79.8341313
   1.7771673  15.7871673  72.5571313   2.3991673  15.9501673  73.1471313
   1.8131673  16.4781673  72.0251313   1.8741673  15.9131673  72.5661313
   2.9681673   7.6631673  74.8111313   3.0271673   8.3131673  75.3901313
   2.7791673   6.9671673  75.3021313   2.9491673   7.6561673  74.9691313
   8.1941673  11.9921673  80.6801313   7.7151673  12.2901673  80.0141313
   7.8381673  11.2161673  80.8581313   8.0711673  11.9211673  80.6081313
  11.8861673  16.1581673  72.6201313  12.5801673  15.6911673  72.3721313
  11.3471673  15.5601673  72.9571313  11.9091673  16.0001673  72.6331313
  10.3811673   9.0051673  79.2361313  10.0951673   9.4061673  79.9561313
  11.2411673   8.9431673  79.3631313  10.4661673   9.0551673  79.3611313
  11.5121673  14.6381673  79.7651313  11.8021673  14.8951673  78.9841313
  12.2071673  14.7341673  80.2841313  11.6581673  14.6901673  79.7261313
   8.1171673  13.2411673  71.7471313   8.4511673  12.4351673  71.7821313
   7.3621673  13.1691673  72.1771313   8.0551673  13.1111673  71.8161313
   8.5991673   5.0751673  77.4061313   7.8541673   4.7521673  77.7241313
   8.6011673   5.9011673  77.6861313   8.4891673   5.1491673  77.4941313
   5.4911673  11.1161673  71.1501313   6.1751673  10.6021673  70.9811313
   5.0741673  11.1621673  70.3851313   5.5301673  11.0471673  71.0121313
  10.2171673   5.6401673  71.3941313  10.5951673   6.3171673  70.9941313
   9.3751673   5.8641673  71.4251313  10.1481673   5.7731673  71.3391313
   7.9121673   5.2391673  74.7691313   8.1191673   5.0381673  75.5931313
   8.6681673   5.5071673  74.4271313   8.0541673   5.2491673  74.8401313
   9.3771673   9.2661673  74.6231313   9.8531673   8.5371673  74.5751313
   8.5561673   8.9801673  74.5471313   9.3261673   9.1161673  74.6041313
   5.5931673  10.4331673  76.9781313   5.6691673  10.7741673  77.7771313
   5.7621673   9.5861673  77.0991313   5.6291673  10.3581673  77.1141313
   3.1151673   9.7071673  76.5431313   2.8171673   9.3921673  77.3001313
   3.8101673  10.1801673  76.7781313   3.1741673   9.7301673  76.6901313
   7.0441673  16.6631673  79.0731313   6.5931673  17.3061673  79.4521313
   7.7521673  16.5841673  79.5781313   7.0821673  16.7461673  79.2041313
  10.1471673   6.3791673  74.0651313  10.2501673   6.3211673  73.2011313
  10.8881673   6.0471673  74.3831313  10.2721673   6.3221673  73.9841313
   4.0671673  13.3441673  75.1721313   3.8621673  14.1771673  75.0131313
   3.2921673  12.9621673  75.2941313   3.9221673  13.4111673  75.1671313
   7.7201673   2.0311673  80.8571313   8.5751673   2.1301673  81.0021313
   7.3511673   2.5841673  81.4221313   7.7921673   2.1281673  80.9621313
   8.0241673   7.3111673  79.3481313   8.6901673   7.8521673  79.5081313
   7.6791673   7.6221673  78.6091313   8.0711673   7.4371673  79.2631313
   8.3371673  15.3771673  75.1551313   8.1631673  14.7231673  75.7051313
   9.0501673  15.1061673  74.7321313   8.4171673  15.2401673  75.1741313
   8.9291673  14.7291673  81.1011313   9.4561673  14.6461673  80.4101313
   8.5381673  13.9511673  81.1551313   8.9491673  14.6021673  81.0071313
   4.8021673   5.9811673  77.8021313   5.3531673   5.3741673  78.1021313
   4.3771673   6.2441673  78.5171313   4.8211673   5.9301673  77.9511313
   6.7721673   7.8121673  74.3641313   6.8401673   6.9621673  74.5451313
   5.9491673   7.8981673  74.0861313   6.6601673   7.6991673  74.3501313
   9.8511673  16.7671673  70.7821313  10.4881673  16.6331673  71.3631313
   9.5101673  15.9731673  70.6651313   9.8951673  16.6301673  70.8501313
   5.9261673  13.0321673  73.1041313   5.6751673  12.9041673  73.9301313
   5.6091673  12.3371673  72.6831313   5.8421673  12.9111673  73.1641313
  10.5701673   4.6901673  81.2241313   9.7371673   4.9401673  81.1521313
  10.5141673   3.8501673  81.4531313  10.4391673   4.6031673  81.2471313
   2.8121673  11.2401673  72.5341313   3.5291673  10.8931673  72.1781313
   2.7781673  12.0401673  72.1861313   2.9131673  11.3071673  72.4301313
   4.0301673   6.7971673  61.4438903   3.5061673   7.3931673  61.8068903
   4.4271673   6.4291673  62.1278903   4.0111673   6.8311673  61.5988903
  10.1741673  14.2381673  54.4148903  10.8751673  13.7191673  54.4108903
   9.5871673  13.7931673  53.9458903  10.1911673  14.0951673  54.3448903
   6.7011673   7.8641673  58.1198903   6.7811673   7.8681673  57.2508903
   6.1171673   7.2321673  58.2688903   6.6261673   7.7711673  58.0138903
   3.5151673   5.8541673  67.5398903   2.6671673   5.7551673  67.3618903
   3.5441673   6.5991673  67.9938903   3.3941673   5.9501673  67.5808903
   5.5351673   3.4551673  51.1678903   5.0851673   4.1361673  51.4748903
   5.6491673   2.9511673  51.8708903   5.4861673   3.4811673  51.3168903
   5.6341673  15.7961673  53.2718903   6.3611673  16.2681673  53.3738903
   5.8631673  15.0021673  53.5518903   5.7761673  15.7491673  53.3288903
   3.8021673  16.1881673  55.2618903   4.0161673  16.7151673  55.9238903
   4.5691673  16.0141673  54.8828903   3.9471673  16.2401673  55.3038903
  10.9291673   3.4281673  57.4628903  10.5831673   4.1061673  57.8888903
  10.2931673   2.8301673  57.4788903  10.7841673   3.4401673  57.5278903
   6.2411673  16.1981673  63.5668903   6.9851673  16.6541673  63.5568903
   6.1201673  15.9841673  62.7298903   6.3331673  16.2341673  63.4418903
   3.0521673   5.0701673  57.0838903   3.3391673   4.8381673  56.2938903
   3.7841673   5.1491673  57.5528903   3.2021673   5.0471673  57.0368903
   3.7741673   5.4091673  52.2048903   4.0551673   6.1971673  52.4538903
   2.9981673   5.5741673  51.8418903   3.7011673   5.5501673  52.1878903
   7.8151673  17.3831673  53.6718903   8.4801673  17.2351673  53.1268903
   8.1751673  17.3001673  54.4618903   7.9671673  17.3491673  53.7078903
   5.4951673  13.3831673  67.2708903   5.4611673  13.7651673  68.0548903
   6.3491673  13.3411673  67.0998903   5.6161673  13.4331673  67.3618903
   2.6331673  13.5801673  52.0208903   2.4521673  14.1251673  52.6778903
   3.3991673  13.8701673  51.7198903   2.7191673  13.7041673  52.0738903
   3.3981673   3.8521673  54.3888903   2.8901673   3.1901673  54.1348903
   3.4501673   4.3561673  53.6788903   3.3311673   3.8291673  54.2468903
   3.9471673  16.5471673  64.7688903   4.7151673  16.4671673  64.3628903
   3.3641673  16.4261673  64.1308903   3.9741673  16.5171673  64.6148903
  10.2241673  17.1501673  57.6698903   9.7691673  17.8671673  57.8708903
   9.6101673  16.5791673  57.4278903  10.0661673  17.1721673  57.6638903
   1.9961673   3.1601673  58.8018903   2.0701673   3.7281673  58.1438903
   2.1171673   3.6521673  59.5118903   2.0241673   3.3171673  58.8098903
   7.2211673  12.9951673  57.2138903   7.9221673  12.5131673  57.4028903
   6.5611673  12.4261673  57.2588903   7.2271673  12.8401673  57.2478903
   5.7881673   3.3301673  64.6898903   5.6931673   3.6491673  65.4958903
   5.1951673   2.6911673  64.6518903   5.6861673   3.2821673  64.8038903
   6.4871673  10.0491673  62.8948903   5.9731673   9.6371673  63.4658903
   6.3611673  10.8931673  63.0758903   6.3931673  10.1131673  63.0058903
   9.5081673   3.5101673  65.8338903  10.2801673   3.2851673  66.1708903
   9.0331673   3.7271673  66.5338903   9.5521673   3.5091673  65.9868903
   9.7401673  10.4881673  53.0218903   9.8591673  10.2011673  53.8368903
  10.5471673  10.5091673  52.6918903   9.8761673  10.4491673  53.0938903
  11.9741673  14.9971673  67.2758903  11.2921673  15.3071673  66.8288903
  11.6051673  14.5391673  67.9208903  11.8181673  14.9751673  67.3048903
   7.6351673   7.0251673  52.6068903   7.4151673   7.7561673  52.1848903
   7.1871673   7.0761673  53.3538903   7.5361673   7.1401673  52.6548903
  12.1451673   6.2641673  64.6158903  12.3601673   5.4641673  64.3398903
  11.2951673   6.3241673  64.4268903  12.0511673   6.1551673  64.5468903
   3.7671673  13.9301673  58.9148903   3.2441673  14.5641673  58.6218903
   4.0771673  13.5661673  58.1858903   3.7351673  13.9701673  58.7638903
   6.2781673   3.7321673  59.4118903   6.6221673   3.8841673  60.1988903
   5.8251673   2.9941673  59.5248903   6.2621673   3.6451673  59.5448903
   9.8081673  15.3791673  65.3658903   9.1371673  15.8931673  65.5838903
   9.8711673  15.4791673  64.5018903   9.7181673  15.4701673  65.2708903
   7.5991673   5.0641673  61.9658903   6.9371673   5.3921673  62.4288903
   7.7861673   5.6981673  61.3968903   7.5291673   5.2061673  61.9498903
   5.7921673   3.0331673  55.4768903   6.2821673   3.7501673  55.3998903
   5.0021673   3.2941673  55.2138903   5.7481673   3.1771673  55.4268903
   7.1061673  10.9111673  67.3868903   7.5901673  11.6291673  67.4848903
   7.5001673  10.4841673  66.7358903   7.2361673  10.9541673  67.3048903
   2.3741673   4.5031673  61.2018903   2.8541673   5.2021673  61.4098903
   2.7471673   3.8561673  61.6528903   2.5001673   4.5111673  61.2988903
   4.5631673   7.6721673  53.4758903   4.5551673   8.3941673  52.9858903
   3.9241673   7.8071673  54.0528903   4.4681673   7.7991673  53.4888903
   9.5351673  11.5421673  57.4568903   9.8911673  11.1921673  58.1718903
   9.5271673  10.8811673  56.8868903   9.5871673  11.3921673  57.4778903
   5.5801673  14.6081673  61.3008903   4.9771673  14.3121673  60.7438903
   6.1251673  15.0601673  60.7918903   5.5711673  14.6311673  61.1428903
   5.5931673  11.4591673  60.7008903   4.7961673  11.6831673  60.9748903
   5.8511673  10.8651673  61.2858903   5.5131673  11.4041673  60.8278903
   1.7771673  15.7871673  53.5508903   2.3991673  15.9501673  54.1408903
   1.8131673  16.4781673  53.0188903   1.8741673  15.9131673  53.5598903
   8.8531673   9.4571673  65.5468903   8.9081673   9.5821673  64.6848903
   9.6061673   9.7771673  65.8488903   8.9721673   9.5221673  65.4638903
   5.0441673  14.8061673  69.8238903   5.2081673  15.0891673  70.6328903
   5.3071673  15.4671673  69.3188903   5.1071673  14.9461673  69.8688903
   4.5841673   9.2631673  65.1468903   4.4291673   9.8731673  65.7508903
   5.1181673   8.7051673  65.5528903   4.6401673   9.2711673  65.2958903
   2.9681673   7.6631673  55.8048903   3.0271673   8.3131673  56.3838903
   2.7791673   6.9671673  56.2958903   2.9491673   7.6561673  55.9628903
   8.1941673  11.9921673  61.6738903   7.7151673  12.2901673  61.0078903
   7.8381673  11.2161673  61.8518903   8.0711673  11.9211673  61.6018903
  11.8861673  16.1581673  53.6138903  12.5801673  15.6911673  53.3658903
  11.3471673  15.5601673  53.9508903  11.9091673  16.0001673  53.6268903
   9.1251673   8.9341673  62.7928903   9.1181673   8.1581673  63.1908903
   8.2841673   9.1681673  62.7858903   9.0001673   8.8541673  62.8508903
  10.3811673   9.0051673  60.2298903  10.0951673   9.4061673  60.9498903
  11.2411673   8.9431673  60.3568903  10.4661673   9.0551673  60.3548903
   8.0431673   2.9291673  68.7698903   7.5181673   3.3881673  69.2938903
   7.6821673   2.1341673  68.7638903   7.9121673   2.8791673  68.8458903
  11.5121673  14.6381673  60.7588903  11.8021673  14.8951673  59.9778903
  12.2071673  14.7341673  61.2778903  11.6581673  14.6901673  60.7198903
   6.5351673   6.4981673  68.8458903   6.6081673   6.6021673  69.7088903
   5.9011673   7.0561673  68.6248903   6.4521673   6.5961673  68.9408903
   8.8031673   6.8171673  67.2108903   9.1221673   7.6031673  67.4138903
   8.4331673   6.5471673  67.9538903   8.7961673   6.8931673  67.3508903
   8.1171673  13.2411673  52.7408903   8.4511673  12.4351673  52.7758903
   7.3621673  13.1691673  53.1708903   8.0551673  13.1111673  52.8098903
   8.5991673   5.0751673  58.3998903   7.8541673   4.7521673  58.7178903
   8.6011673   5.9011673  58.6798903   8.4891673   5.1491673  58.4878903
  11.5011673   7.3591673  69.9458903  11.4491673   7.0181673  69.1448903
  12.2381673   7.8261673  69.9238903  11.6021673   7.3781673  69.8238903
  11.0391673  11.0351673  66.1518903  11.6671673  10.4861673  65.8958903
  10.9781673  11.6001673  65.4898903  11.1231673  11.0381673  66.0158903
   5.4911673  11.1161673  52.1438903   6.1751673  10.6021673  51.9748903
   5.0741673  11.1621673  51.3788903   5.5301673  11.0471673  52.0058903
   2.6891673   8.6891673  62.9388903   3.1651673   9.0631673  63.5668903
   1.8661673   8.8231673  63.1978903   2.6381673   8.7641673  63.0698903
   4.4451673  10.9441673  68.5448903   5.2021673  11.2301673  68.2188903
   3.8981673  10.9961673  67.8668903   4.4761673  10.9941673  68.3958903
   8.3541673  13.4941673  67.0488903   8.7001673  13.7641673  67.8028903
   8.6481673  14.0761673  66.4688903   8.4491673  13.6201673  67.0748903
  10.2171673   5.6401673  52.3878903  10.5951673   6.3171673  51.9878903
   9.3751673   5.8641673  52.4188903  10.1481673   5.7731673  52.3328903
   5.6761673   4.2551673  67.2128903   5.0281673   4.7251673  67.5608903
   6.2411673   4.1661673  67.8718903   5.6641673   4.3111673  67.3618903
   5.3641673   5.7921673  63.5108903   5.6661673   6.2121673  64.2138903
   5.4001673   4.9521673  63.7428903   5.4141673   5.7301673  63.6488903
   2.7891673  15.9591673  67.4358903   3.2671673  15.3591673  67.0198903
   2.4381673  15.5161673  68.1008903   2.8081673  15.8051673  67.4728903
   7.9121673   5.2391673  55.7628903   8.1191673   5.0381673  56.5868903
   8.6681673   5.5071673  55.4208903   8.0541673   5.2491673  55.8338903
   9.3771673   9.2661673  55.6168903   9.8531673   8.5371673  55.5688903
   8.5561673   8.9801673  55.5408903   9.3261673   9.1161673  55.5978903
   2.8481673  11.1781673  66.4558903   2.0531673  11.1141673  66.8068903
   2.9191673  12.0251673  66.2608903   2.7411673  11.2931673  66.4788903
   5.5931673  10.4331673  57.9718903   5.6691673  10.7741673  58.7708903
   5.7621673   9.5861673  58.0928903   5.6291673  10.3581673  58.1078903
   3.1151673   9.7071673  57.5368903   2.8171673   9.3921673  58.2938903
   3.8101673  10.1801673  57.7718903   3.1741673   9.7301673  57.6838903
   3.3371673  13.8251673  65.5638903   4.0241673  13.7111673  66.0888903
   3.4711673  14.6161673  65.2198903   3.4581673  13.9251673  65.5908903
  11.5131673   6.4341673  67.3748903  10.6581673   6.3121673  67.5008903
  11.6661673   6.0391673  66.6118903  11.4091673   6.3571673  67.2808903
   6.0261673   7.0991673  65.9508903   5.7711673   6.3801673  66.3728903
   6.8471673   7.2151673  66.2208903   6.1101673   7.0101673  66.0528903
   3.9601673   8.2891673  69.1378903   4.2831673   8.9751673  68.7058903
   3.2561673   8.6121673  69.5398903   3.9031673   8.4381673  69.1328903
   7.0441673  16.6631673  60.0668903   6.5931673  17.3061673  60.4458903
   7.7521673  16.5841673  60.5718903   7.0821673  16.7461673  60.1978903
   3.7451673  11.7531673  62.9968903   3.0511673  12.1551673  63.3398903
   4.4221673  12.1861673  63.3358903   3.7421673  11.8761673  63.0978903
   9.1221673  14.3461673  69.5768903   9.8981673  13.9561673  69.6598903
   8.6531673  14.0101673  70.2318903   9.1671673  14.2391673  69.6858903
  10.1471673   6.3791673  55.0588903  10.2501673   6.3211673  54.1948903
  10.8881673   6.0471673  55.3768903  10.2721673   6.3221673  54.9778903
   4.0671673  13.3441673  56.1658903   3.8621673  14.1771673  56.0068903
   3.2921673  12.9621673  56.2878903   3.9221673  13.4111673  56.1608903
   9.2491673   6.5251673  64.4148903   9.2471673   5.6621673  64.5388903
   9.3161673   6.8491673  65.2218903   9.2591673   6.4451673  64.5518903
   7.7201673   2.0311673  61.8508903   8.5751673   2.1301673  61.9958903
   7.3511673   2.5841673  62.4158903   7.7921673   2.1281673  61.9558903
   8.0241673   7.3111673  60.3418903   8.6901673   7.8521673  60.5018903
   7.6791673   7.6221673  59.6028903   8.0711673   7.4371673  60.2568903
   8.3371673  15.3771673  56.1488903   8.1631673  14.7231673  56.6988903
   9.0501673  15.1061673  55.7258903   8.4171673  15.2401673  56.1678903
   6.0121673  12.8301673  63.8398903   6.2181673  13.1311673  64.6318903
   5.9511673  13.5521673  63.3548903   6.0331673  12.9811673  63.8848903
   5.5461673  17.0441673  68.0858903   4.7931673  17.0261673  67.6448903
   5.7141673  17.8961673  68.1698903   5.4601673  17.1671673  68.0328903
  10.8241673  11.4691673  63.2978903  10.7921673  10.6071673  63.1628903
  10.1311673  11.7711673  62.8638903  10.7171673  11.3861673  63.2138903
   8.9291673  14.7291673  62.0948903   9.4561673  14.6461673  61.4038903
   8.5381673  13.9511673  62.1488903   8.9491673  14.6021673  62.0008903
   4.8021673   5.9811673  58.7958903   5.3531673   5.3741673  59.0958903
   4.3771673   6.2441673  59.5108903   4.8211673   5.9301673  58.9448903
   6.7721673   7.8121673  55.3578903   6.8401673   6.9621673  55.5388903
   5.9491673   7.8981673  55.0798903   6.6601673   7.6991673  55.3438903
   9.8511673  16.7671673  51.7758903  10.4881673  16.6331673  52.3568903
   9.5101673  15.9731673  51.6588903   9.8951673  16.6301673  51.8438903
  10.0461673   9.1851673  68.5088903  10.6801673   9.0151673  69.0828903
  10.4631673   9.5881673  67.8568903  10.2011673   9.2201673  68.4978903
   5.9261673  13.0321673  54.0978903   5.6751673  12.9041673  54.9238903
   5.6091673  12.3371673  53.6768903   5.8421673  12.9111673  54.1578903
  10.6711673   3.7491673  69.2468903  10.4751673   4.3931673  69.8018903
   9.9491673   3.2591673  69.2388903  10.5361673   3.7721673  69.3278903
  10.5701673   4.6901673  62.2178903   9.7371673   4.9401673  62.1458903
  10.5141673   3.8501673  62.4468903  10.4391673   4.6031673  62.2408903
   7.4571673   9.2961673  69.8638903   8.3281673   9.2601673  69.8278903
   7.2381673   9.7161673  69.1318903   7.5541673   9.3521673  69.7508903
   2.8121673  11.2401673  53.5278903   3.5291673  10.8931673  53.1718903
   2.7781673  12.0401673  53.1798903   2.9131673  11.3071673  53.4238903
   4.0301673   6.7971673  42.4376493   3.5061673   7.3931673  42.8006493
   4.4271673   6.4291673  43.1216493   4.0111673   6.8311673  42.5926493
  10.1741673  14.2381673  35.4086493  10.8751673  13.7191673  35.4046493
   9.5871673  13.7931673  34.9396493  10.1911673  14.0951673  35.3386493
   6.7011673   7.8641673  39.1136493   6.7811673   7.8681673  38.2446493
   6.1171673   7.2321673  39.2626493   6.6261673   7.7711673  39.0076493
   3.5151673   5.8541673  48.5336493   2.6671673   5.7551673  48.3556493
   3.5441673   6.5991673  48.9876493   3.3941673   5.9501673  48.5746493
   5.5351673   3.4551673  32.1616493   5.0851673   4.1361673  32.4686493
   5.6491673   2.9511673  32.8646493   5.4861673   3.4811673  32.3106493
   5.6341673  15.7961673  34.2656493   6.3611673  16.2681673  34.3676493
   5.8631673  15.0021673  34.5456493   5.7761673  15.7491673  34.3226493
   3.8021673  16.1881673  36.2556493   4.0161673  16.7151673  36.9176493
   4.5691673  16.0141673  35.8766493   3.9471673  16.2401673  36.2976493
  10.9291673   3.4281673  38.4566493  10.5831673   4.1061673  38.8826493
  10.2931673   2.8301673  38.4726493  10.7841673   3.4401673  38.5216493
   6.2411673  16.1981673  44.5606493   6.9851673  16.6541673  44.5506493
   6.1201673  15.9841673  43.7236493   6.3331673  16.2341673  44.4356493
   3.0521673   5.0701673  38.0776493   3.3391673   4.8381673  37.2876493
   3.7841673   5.1491673  38.5466493   3.2021673   5.0471673  38.0306493
   3.7741673   5.4091673  33.1986493   4.0551673   6.1971673  33.4476493
   2.9981673   5.5741673  32.8356493   3.7011673   5.5501673  33.1816493
   7.8151673  17.3831673  34.6656493   8.4801673  17.2351673  34.1206493
   8.1751673  17.3001673  35.4556493   7.9671673  17.3491673  34.7016493
   5.4951673  13.3831673  48.2646493   5.4611673  13.7651673  49.0486493
   6.3491673  13.3411673  48.0936493   5.6161673  13.4331673  48.3556493
   2.6331673  13.5801673  33.0146493   2.4521673  14.1251673  33.6716493
   3.3991673  13.8701673  32.7136493   2.7191673  13.7041673  33.0676493
   3.3981673   3.8521673  35.3826493   2.8901673   3.1901673  35.1286493
   3.4501673   4.3561673  34.6726493   3.3311673   3.8291673  35.2406493
   3.9471673  16.5471673  45.7626493   4.7151673  16.4671673  45.3566493
   3.3641673  16.4261673  45.1246493   3.9741673  16.5171673  45.6086493
  10.2241673  17.1501673  38.6636493   9.7691673  17.8671673  38.8646493
   9.6101673  16.5791673  38.4216493  10.0661673  17.1721673  38.6576493
   1.9961673   3.1601673  39.7956493   2.0701673   3.7281673  39.1376493
   2.1171673   3.6521673  40.5056493   2.0241673   3.3171673  39.8036493
   7.2211673  12.9951673  38.2076493   7.9221673  12.5131673  38.3966493
   6.5611673  12.4261673  38.2526493   7.2271673  12.8401673  38.2416493
   5.7881673   3.3301673  45.6836493   5.6931673   3.6491673  46.4896493
   5.1951673   2.6911673  45.6456493   5.6861673   3.2821673  45.7976493
   6.4871673  10.0491673  43.8886493   5.9731673   9.6371673  44.4596493
   6.3611673  10.8931673  44.0696493   6.3931673  10.1131673  43.9996493
   9.5081673   3.5101673  46.8276493  10.2801673   3.2851673  47.1646493
   9.0331673   3.7271673  47.5276493   9.5521673   3.5091673  46.9806493
   9.7401673  10.4881673  34.0156493   9.8591673  10.2011673  34.8306493
  10.5471673  10.5091673  33.6856493   9.8761673  10.4491673  34.0876493
  11.9741673  14.9971673  48.2696493  11.2921673  15.3071673  47.8226493
  11.6051673  14.5391673  48.9146493  11.8181673  14.9751673  48.2986493
   7.6351673   7.0251673  33.6006493   7.4151673   7.7561673  33.1786493
   7.1871673   7.0761673  34.3476493   7.5361673   7.1401673  33.6486493
  12.1451673   6.2641673  45.6096493  12.3601673   5.4641673  45.3336493
  11.2951673   6.3241673  45.4206493  12.0511673   6.1551673  45.5406493
   3.7671673  13.9301673  39.9086493   3.2441673  14.5641673  39.6156493
   4.0771673  13.5661673  39.1796493   3.7351673  13.9701673  39.7576493
   6.2781673   3.7321673  40.4056493   6.6221673   3.8841673  41.1926493
   5.8251673   2.9941673  40.5186493   6.2621673   3.6451673  40.5386493
   9.8081673  15.3791673  46.3596493   9.1371673  15.8931673  46.5776493
   9.8711673  15.4791673  45.4956493   9.7181673  15.4701673  46.2646493
   7.5991673   5.0641673  42.9596493   6.9371673   5.3921673  43.4226493
   7.7861673   5.6981673  42.3906493   7.5291673   5.2061673  42.9436493
   5.7921673   3.0331673  36.4706493   6.2821673   3.7501673  36.3936493
   5.0021673   3.2941673  36.2076493   5.7481673   3.1771673  36.4206493
   7.1061673  10.9111673  48.3806493   7.5901673  11.6291673  48.4786493
   7.5001673  10.4841673  47.7296493   7.2361673  10.9541673  48.2986493
   2.3741673   4.5031673  42.1956493   2.8541673   5.2021673  42.4036493
   2.7471673   3.8561673  42.6466493   2.5001673   4.5111673  42.2926493
   4.5631673   7.6721673  34.4696493   4.5551673   8.3941673  33.9796493
   3.9241673   7.8071673  35.0466493   4.4681673   7.7991673  34.4826493
   9.5351673  11.5421673  38.4506493   9.8911673  11.1921673  39.1656493
   9.5271673  10.8811673  37.8806493   9.5871673  11.3921673  38.4716493
   5.5801673  14.6081673  42.2946493   4.9771673  14.3121673  41.7376493
   6.1251673  15.0601673  41.7856493   5.5711673  14.6311673  42.1366493
   5.5931673  11.4591673  41.6946493   4.7961673  11.6831673  41.9686493
   5.8511673  10.8651673  42.2796493   5.5131673  11.4041673  41.8216493
   1.7771673  15.7871673  34.5446493   2.3991673  15.9501673  35.1346493
   1.8131673  16.4781673  34.0126493   1.8741673  15.9131673  34.5536493
   8.8531673   9.4571673  46.5406493   8.9081673   9.5821673  45.6786493
   9.6061673   9.7771673  46.8426493   8.9721673   9.5221673  46.4576493
   5.0441673  14.8061673  50.8176493   5.2081673  15.0891673  51.6266493
   5.3071673  15.4671673  50.3126493   5.1071673  14.9461673  50.8626493
   4.5841673   9.2631673  46.1406493   4.4291673   9.8731673  46.7446493
   5.1181673   8.7051673  46.5466493   4.6401673   9.2711673  46.2896493
   2.9681673   7.6631673  36.7986493   3.0271673   8.3131673  37.3776493
   2.7791673   6.9671673  37.2896493   2.9491673   7.6561673  36.9566493
   8.1941673  11.9921673  42.6676493   7.7151673  12.2901673  42.0016493
   7.8381673  11.2161673  42.8456493   8.0711673  11.9211673  42.5956493
  11.8861673  16.1581673  34.6076493  12.5801673  15.6911673  34.3596493
  11.3471673  15.5601673  34.9446493  11.9091673  16.0001673  34.6206493
   9.1251673   8.9341673  43.7866493   9.1181673   8.1581673  44.1846493
   8.2841673   9.1681673  43.7796493   9.0001673   8.8541673  43.8446493
  10.3811673   9.0051673  41.2236493  10.0951673   9.4061673  41.9436493
  11.2411673   8.9431673  41.3506493  10.4661673   9.0551673  41.3486493
   8.0431673   2.9291673  49.7636493   7.5181673   3.3881673  50.2876493
   7.6821673   2.1341673  49.7576493   7.9121673   2.8791673  49.8396493
  11.5121673  14.6381673  41.7526493  11.8021673  14.8951673  40.9716493
  12.2071673  14.7341673  42.2716493  11.6581673  14.6901673  41.7136493
   6.5351673   6.4981673  49.8396493   6.6081673   6.6021673  50.7026493
   5.9011673   7.0561673  49.6186493   6.4521673   6.5961673  49.9346493
   8.8031673   6.8171673  48.2046493   9.1221673   7.6031673  48.4076493
   8.4331673   6.5471673  48.9476493   8.7961673   6.8931673  48.3446493
   8.1171673  13.2411673  33.7346493   8.4511673  12.4351673  33.7696493
   7.3621673  13.1691673  34.1646493   8.0551673  13.1111673  33.8036493
   8.5991673   5.0751673  39.3936493   7.8541673   4.7521673  39.7116493
   8.6011673   5.9011673  39.6736493   8.4891673   5.1491673  39.4816493
  11.5011673   7.3591673  50.9396493  11.4491673   7.0181673  50.1386493
  12.2381673   7.8261673  50.9176493  11.6021673   7.3781673  50.8176493
  11.0391673  11.0351673  47.1456493  11.6671673  10.4861673  46.8896493
  10.9781673  11.6001673  46.4836493  11.1231673  11.0381673  47.0096493
   5.4911673  11.1161673  33.1376493   6.1751673  10.6021673  32.9686493
   5.0741673  11.1621673  32.3726493   5.5301673  11.0471673  32.9996493
   2.6891673   8.6891673  43.9326493   3.1651673   9.0631673  44.5606493
   1.8661673   8.8231673  44.1916493   2.6381673   8.7641673  44.0636493
   4.4451673  10.9441673  49.5386493   5.2021673  11.2301673  49.2126493
   3.8981673  10.9961673  48.8606493   4.4761673  10.9941673  49.3896493
   8.3541673  13.4941673  48.0426493   8.7001673  13.7641673  48.7966493
   8.6481673  14.0761673  47.4626493   8.4491673  13.6201673  48.0686493
  10.2171673   5.6401673  33.3816493  10.5951673   6.3171673  32.9816493
   9.3751673   5.8641673  33.4126493  10.1481673   5.7731673  33.3266493
   5.6761673   4.2551673  48.2066493   5.0281673   4.7251673  48.5546493
   6.2411673   4.1661673  48.8656493   5.6641673   4.3111673  48.3556493
   5.3641673   5.7921673  44.5046493   5.6661673   6.2121673  45.2076493
   5.4001673   4.9521673  44.7366493   5.4141673   5.7301673  44.6426493
   2.7891673  15.9591673  48.4296493   3.2671673  15.3591673  48.0136493
   2.4381673  15.5161673  49.0946493   2.8081673  15.8051673  48.4666493
   7.9121673   5.2391673  36.7566493   8.1191673   5.0381673  37.5806493
   8.6681673   5.5071673  36.4146493   8.0541673   5.2491673  36.8276493
   9.3771673   9.2661673  36.6106493   9.8531673   8.5371673  36.5626493
   8.5561673   8.9801673  36.5346493   9.3261673   9.1161673  36.5916493
   2.8481673  11.1781673  47.4496493   2.0531673  11.1141673  47.8006493
   2.9191673  12.0251673  47.2546493   2.7411673  11.2931673  47.4726493
   5.5931673  10.4331673  38.9656493   5.6691673  10.7741673  39.7646493
   5.7621673   9.5861673  39.0866493   5.6291673  10.3581673  39.1016493
   3.1151673   9.7071673  38.5306493   2.8171673   9.3921673  39.2876493
   3.8101673  10.1801673  38.7656493   3.1741673   9.7301673  38.6776493
   3.3371673  13.8251673  46.5576493   4.0241673  13.7111673  47.0826493
   3.4711673  14.6161673  46.2136493   3.4581673  13.9251673  46.5846493
  11.5131673   6.4341673  48.3686493  10.6581673   6.3121673  48.4946493
  11.6661673   6.0391673  47.6056493  11.4091673   6.3571673  48.2746493
   6.0261673   7.0991673  46.9446493   5.7711673   6.3801673  47.3666493
   6.8471673   7.2151673  47.2146493   6.1101673   7.0101673  47.0466493
   3.9601673   8.2891673  50.1316493   4.2831673   8.9751673  49.6996493
   3.2561673   8.6121673  50.5336493   3.9031673   8.4381673  50.1266493
   7.0441673  16.6631673  41.0606493   6.5931673  17.3061673  41.4396493
   7.7521673  16.5841673  41.5656493   7.0821673  16.7461673  41.1916493
   3.7451673  11.7531673  43.9906493   3.0511673  12.1551673  44.3336493
   4.4221673  12.1861673  44.3296493   3.7421673  11.8761673  44.0916493
   9.1221673  14.3461673  50.5706493   9.8981673  13.9561673  50.6536493
   8.6531673  14.0101673  51.2256493   9.1671673  14.2391673  50.6796493
  10.1471673   6.3791673  36.0526493  10.2501673   6.3211673  35.1886493
  10.8881673   6.0471673  36.3706493  10.2721673   6.3221673  35.9716493
   4.0671673  13.3441673  37.1596493   3.8621673  14.1771673  37.0006493
   3.2921673  12.9621673  37.2816493   3.9221673  13.4111673  37.1546493
   9.2491673   6.5251673  45.4086493   9.2471673   5.6621673  45.5326493
   9.3161673   6.8491673  46.2156493   9.2591673   6.4451673  45.5456493
   7.7201673   2.0311673  42.8446493   8.5751673   2.1301673  42.9896493
   7.3511673   2.5841673  43.4096493   7.7921673   2.1281673  42.9496493
   8.0241673   7.3111673  41.3356493   8.6901673   7.8521673  41.4956493
   7.6791673   7.6221673  40.5966493   8.0711673   7.4371673  41.2506493
   8.3371673  15.3771673  37.1426493   8.1631673  14.7231673  37.6926493
   9.0501673  15.1061673  36.7196493   8.4171673  15.2401673  37.1616493
   6.0121673  12.8301673  44.8336493   6.2181673  13.1311673  45.6256493
   5.9511673  13.5521673  44.3486493   6.0331673  12.9811673  44.8786493
   5.5461673  17.0441673  49.0796493   4.7931673  17.0261673  48.6386493
   5.7141673  17.8961673  49.1636493   5.4601673  17.1671673  49.0266493
  10.8241673  11.4691673  44.2916493  10.7921673  10.6071673  44.1566493
  10.1311673  11.7711673  43.8576493  10.7171673  11.3861673  44.2076493
   8.9291673  14.7291673  43.0886493   9.4561673  14.6461673  42.3976493
   8.5381673  13.9511673  43.1426493   8.9491673  14.6021673  42.9946493
   4.8021673   5.9811673  39.7896493   5.3531673   5.3741673  40.0896493
   4.3771673   6.2441673  40.5046493   4.8211673   5.9301673  39.9386493
   6.7721673   7.8121673  36.3516493   6.8401673   6.9621673  36.5326493
   5.9491673   7.8981673  36.0736493   6.6601673   7.6991673  36.3376493
   9.8511673  16.7671673  32.7696493  10.4881673  16.6331673  33.3506493
   9.5101673  15.9731673  32.6526493   9.8951673  16.6301673  32.8376493
  10.0461673   9.1851673  49.5026493  10.6801673   9.0151673  50.0766493
  10.4631673   9.5881673  48.8506493  10.2011673   9.2201673  49.4916493
   5.9261673  13.0321673  35.0916493   5.6751673  12.9041673  35.9176493
   5.6091673  12.3371673  34.6706493   5.8421673  12.9111673  35.1516493
  10.6711673   3.7491673  50.2406493  10.4751673   4.3931673  50.7956493
   9.9491673   3.2591673  50.2326493  10.5361673   3.7721673  50.3216493
  10.5701673   4.6901673  43.2116493   9.7371673   4.9401673  43.1396493
  10.5141673   3.8501673  43.4406493  10.4391673   4.6031673  43.2346493
   7.4571673   9.2961673  50.8576493   8.3281673   9.2601673  50.8216493
   7.2381673   9.7161673  50.1256493   7.5541673   9.3521673  50.7446493
   2.8121673  11.2401673  34.5216493   3.5291673  10.8931673  34.1656493
   2.7781673  12.0401673  34.1736493   2.9131673  11.3071673  34.4176493
   4.0301673   6.7971673  23.4314083   3.5061673   7.3931673  23.7944083
   4.4271673   6.4291673  24.1154083   4.0111673   6.8311673  23.5864083
  10.1741673  14.2381673  16.4024083  10.8751673  13.7191673  16.3984083
   9.5871673  13.7931673  15.9334083  10.1911673  14.0951673  16.3324083
   6.7011673   7.8641673  20.1074083   6.7811673   7.8681673  19.2384083
   6.1171673   7.2321673  20.2564083   6.6261673   7.7711673  20.0014083
   3.5151673   5.8541673  29.5274083   2.6671673   5.7551673  29.3494083
   3.5441673   6.5991673  29.9814083   3.3941673   5.9501673  29.5684083
   5.5351673   3.4551673  13.1554083   5.0851673   4.1361673  13.4624083
   5.6491673   2.9511673  13.8584083   5.4861673   3.4811673  13.3044083
   5.6341673  15.7961673  15.2594083   6.3611673  16.2681673  15.3614083
   5.8631673  15.0021673  15.5394083   5.7761673  15.7491673  15.3164083
   3.8021673  16.1881673  17.2494083   4.0161673  16.7151673  17.9114083
   4.5691673  16.0141673  16.8704083   3.9471673  16.2401673  17.2914083
  10.9291673   3.4281673  19.4504083  10.5831673   4.1061673  19.8764083
  10.2931673   2.8301673  19.4664083  10.7841673   3.4401673  19.5154083
   6.2411673  16.1981673  25.5544083   6.9851673  16.6541673  25.5444083
   6.1201673  15.9841673  24.7174083   6.3331673  16.2341673  25.4294083
   3.0521673   5.0701673  19.0714083   3.3391673   4.8381673  18.2814083
   3.7841673   5.1491673  19.5404083   3.2021673   5.0471673  19.0244083
   3.7741673   5.4091673  14.1924083   4.0551673   6.1971673  14.4414083
   2.9981673   5.5741673  13.8294083   3.7011673   5.5501673  14.1754083
   7.8151673  17.3831673  15.6594083   8.4801673  17.2351673  15.1144083
   8.1751673  17.3001673  16.4494083   7.9671673  17.3491673  15.6954083
   5.4951673  13.3831673  29.2584083   5.4611673  13.7651673  30.0424083
   6.3491673  13.3411673  29.0874083   5.6161673  13.4331673  29.3494083
   2.6331673  13.5801673  14.0084083   2.4521673  14.1251673  14.6654083
   3.3991673  13.8701673  13.7074083   2.7191673  13.7041673  14.0614083
   3.3981673   3.8521673  16.3764083   2.8901673   3.1901673  16.1224083
   3.4501673   4.3561673  15.6664083   3.3311673   3.8291673  16.2344083
   3.9471673  16.5471673  26.7564083   4.7151673  16.4671673  26.3504083
   3.3641673  16.4261673  26.1184083   3.9741673  16.5171673  26.6024083
  10.2241673  17.1501673  19.6574083   9.7691673  17.8671673  19.8584083
   9.6101673  16.5791673  19.4154083  10.0661673  17.1721673  19.6514083
   1.9961673   3.1601673  20.7894083   2.0701673   3.7281673  20.1314083
   2.1171673   3.6521673  21.4994083   2.0241673   3.3171673  20.7974083
   7.2211673  12.9951673  19.2014083   7.9221673  12.5131673  19.3904083
   6.5611673  12.4261673  19.2464083   7.2271673  12.8401673  19.2354083
   5.7881673   3.3301673  26.6774083   5.6931673   3.6491673  27.4834083
   5.1951673   2.6911673  26.6394083   5.6861673   3.2821673  26.7914083
   6.4871673  10.0491673  24.8824083   5.9731673   9.6371673  25.4534083
   6.3611673  10.8931673  25.0634083   6.3931673  10.1131673  24.9934083
   9.5081673   3.5101673  27.8214083  10.2801673   3.2851673  28.1584083
   9.0331673   3.7271673  28.5214083   9.5521673   3.5091673  27.9744083
   9.7401673  10.4881673  15.0094083   9.8591673  10.2011673  15.8244083
  10.5471673  10.5091673  14.6794083   9.8761673  10.4491673  15.0814083
  11.9741673  14.9971673  29.2634083  11.2921673  15.3071673  28.8164083
  11.6051673  14.5391673  29.9084083  11.8181673  14.9751673  29.2924083
   7.6351673   7.0251673  14.5944083   7.4151673   7.7561673  14.1724083
   7.1871673   7.0761673  15.3414083   7.5361673   7.1401673  14.6424083
  12.1451673   6.2641673  26.6034083  12.3601673   5.4641673  26.3274083
  11.2951673   6.3241673  26.4144083  12.0511673   6.1551673  26.5344083
   3.7671673  13.9301673  20.9024083   3.2441673  14.5641673  20.6094083
   4.0771673  13.5661673  20.1734083   3.7351673  13.9701673  20.7514083
   6.2781673   3.7321673  21.3994083   6.6221673   3.8841673  22.1864083
   5.8251673   2.9941673  21.5124083   6.2621673   3.6451673  21.5324083
   9.8081673  15.3791673  27.3534083   9.1371673  15.8931673  27.5714083
   9.8711673  15.4791673  26.4894083   9.7181673  15.4701673  27.2584083
   7.5991673   5.0641673  23.9534083   6.9371673   5.3921673  24.4164083
   7.7861673   5.6981673  23.3844083   7.5291673   5.2061673  23.9374083
   5.7921673   3.0331673  17.4644083   6.2821673   3.7501673  17.3874083
   5.0021673   3.2941673  17.2014083   5.7481673   3.1771673  17.4144083
   7.1061673  10.9111673  29.3744083   7.5901673  11.6291673  29.4724083
   7.5001673  10.4841673  28.7234083   7.2361673  10.9541673  29.2924083
   2.3741673   4.5031673  23.1894083   2.8541673   5.2021673  23.3974083
   2.7471673   3.8561673  23.6404083   2.5001673   4.5111673  23.2864083
   4.5631673   7.6721673  15.4634083   4.5551673   8.3941673  14.9734083
   3.9241673   7.8071673  16.0404083   4.4681673   7.7991673  15.4764083
   9.5351673  11.5421673  19.4444083   9.8911673  11.1921673  20.1594083
   9.5271673  10.8811673  18.8744083   9.5871673  11.3921673  19.4654083
   5.5801673  14.6081673  23.2884083   4.9771673  14.3121673  22.7314083
   6.1251673  15.0601673  22.7794083   5.5711673  14.6311673  23.1304083
   5.5931673  11.4591673  22.6884083   4.7961673  11.6831673  22.9624083
   5.8511673  10.8651673  23.2734083   5.5131673  11.4041673  22.8154083
   1.7771673  15.7871673  15.5384083   2.3991673  15.9501673  16.1284083
   1.8131673  16.4781673  15.0064083   1.8741673  15.9131673  15.5474083
   8.8531673   9.4571673  27.5344083   8.9081673   9.5821673  26.6724083
   9.6061673   9.7771673  27.8364083   8.9721673   9.5221673  27.4514083
   5.0441673  14.8061673  31.8114083   5.2081673  15.0891673  32.6204083
   5.3071673  15.4671673  31.3064083   5.1071673  14.9461673  31.8564083
   4.5841673   9.2631673  27.1344083   4.4291673   9.8731673  27.7384083
   5.1181673   8.7051673  27.5404083   4.6401673   9.2711673  27.2834083
   2.9681673   7.6631673  17.7924083   3.0271673   8.3131673  18.3714083
   2.7791673   6.9671673  18.2834083   2.9491673   7.6561673  17.9504083
   8.1941673  11.9921673  23.6614083   7.7151673  12.2901673  22.9954083
   7.8381673  11.2161673  23.8394083   8.0711673  11.9211673  23.5894083
  11.8861673  16.1581673  15.6014083  12.5801673  15.6911673  15.3534083
  11.3471673  15.5601673  15.9384083  11.9091673  16.0001673  15.6144083
   9.1251673   8.9341673  24.7804083   9.1181673   8.1581673  25.1784083
   8.2841673   9.1681673  24.7734083   9.0001673   8.8541673  24.8384083
  10.3811673   9.0051673  22.2174083  10.0951673   9.4061673  22.9374083
  11.2411673   8.9431673  22.3444083  10.4661673   9.0551673  22.3424083
   8.0431673   2.9291673  30.7574083   7.5181673   3.3881673  31.2814083
   7.6821673   2.1341673  30.7514083   7.9121673   2.8791673  30.8334083
  11.5121673  14.6381673  22.7464083  11.8021673  14.8951673  21.9654083
  12.2071673  14.7341673  23.2654083  11.6581673  14.6901673  22.7074083
   6.5351673   6.4981673  30.8334083   6.6081673   6.6021673  31.6964083
   5.9011673   7.0561673  30.6124083   6.4521673   6.5961673  30.9284083
   8.8031673   6.8171673  29.1984083   9.1221673   7.6031673  29.4014083
   8.4331673   6.5471673  29.9414083   8.7961673   6.8931673  29.3384083
   8.1171673  13.2411673  14.7284083   8.4511673  12.4351673  14.7634083
   7.3621673  13.1691673  15.1584083   8.0551673  13.1111673  14.7974083
   8.5991673   5.0751673  20.3874083   7.8541673   4.7521673  20.7054083
   8.6011673   5.9011673  20.6674083   8.4891673   5.1491673  20.4754083
  11.5011673   7.3591673  31.9334083  11.4491673   7.0181673  31.1324083
  12.2381673   7.8261673  31.9114083  11.6021673   7.3781673  31.8114083
  11.0391673  11.0351673  28.1394083  11.6671673  10.4861673  27.8834083
  10.9781673  11.6001673  27.4774083  11.1231673  11.0381673  28.0034083
   5.4911673  11.1161673  14.1314083   6.1751673  10.6021673  13.9624083
   5.0741673  11.1621673  13.3664083   5.5301673  11.0471673  13.9934083
   2.6891673   8.6891673  24.9264083   3.1651673   9.0631673  25.5544083
   1.8661673   8.8231673  25.1854083   2.6381673   8.7641673  25.0574083
   4.4451673  10.9441673  30.5324083   5.2021673  11.2301673  30.2064083
   3.8981673  10.9961673  29.8544083   4.4761673  10.9941673  30.3834083
   8.3541673  13.4941673  29.0364083   8.7001673  13.7641673  29.7904083
   8.6481673  14.0761673  28.4564083   8.4491673  13.6201673  29.0624083
  10.2171673   5.6401673  14.3754083  10.5951673   6.3171673  13.9754083
   9.3751673   5.8641673  14.4064083  10.1481673   5.7731673  14.3204083
   5.6761673   4.2551673  29.2004083   5.0281673   4.7251673  29.5484083
   6.2411673   4.1661673  29.8594083   5.6641673   4.3111673  29.3494083
   5.3641673   5.7921673  25.4984083   5.6661673   6.2121673  26.2014083
   5.4001673   4.9521673  25.7304083   5.4141673   5.7301673  25.6364083
   2.7891673  15.9591673  29.4234083   3.2671673  15.3591673  29.0074083
   2.4381673  15.5161673  30.0884083   2.8081673  15.8051673  29.4604083
   7.9121673   5.2391673  17.7504083   8.1191673   5.0381673  18.5744083
   8.6681673   5.5071673  17.4084083   8.0541673   5.2491673  17.8214083
   9.3771673   9.2661673  17.6044083   9.8531673   8.5371673  17.5564083
   8.5561673   8.9801673  17.5284083   9.3261673   9.1161673  17.5854083
   2.8481673  11.1781673  28.4434083   2.0531673  11.1141673  28.7944083
   2.9191673  12.0251673  28.2484083   2.7411673  11.2931673  28.4664083
   5.5931673  10.4331673  19.9594083   5.6691673  10.7741673  20.7584083
   5.7621673   9.5861673  20.0804083   5.6291673  10.3581673  20.0954083
   3.1151673   9.7071673  19.5244083   2.8171673   9.3921673  20.2814083
   3.8101673  10.1801673  19.7594083   3.1741673   9.7301673  19.6714083
   3.3371673  13.8251673  27.5514083   4.0241673  13.7111673  28.0764083
   3.4711673  14.6161673  27.2074083   3.4581673  13.9251673  27.5784083
  11.5131673   6.4341673  29.3624083  10.6581673   6.3121673  29.4884083
  11.6661673   6.0391673  28.5994083  11.4091673   6.3571673  29.2684083
   6.0261673   7.0991673  27.9384083   5.7711673   6.3801673  28.3604083
   6.8471673   7.2151673  28.2084083   6.1101673   7.0101673  28.0404083
   3.9601673   8.2891673  31.1254083   4.2831673   8.9751673  30.6934083
   3.2561673   8.6121673  31.5274083   3.9031673   8.4381673  31.1204083
   7.0441673  16.6631673  22.0544083   6.5931673  17.3061673  22.4334083
   7.7521673  16.5841673  22.5594083   7.0821673  16.7461673  22.1854083
   3.7451673  11.7531673  24.9844083   3.0511673  12.1551673  25.3274083
   4.4221673  12.1861673  25.3234083   3.7421673  11.8761673  25.0854083
   9.1221673  14.3461673  31.5644083   9.8981673  13.9561673  31.6474083
   8.6531673  14.0101673  32.2194083   9.1671673  14.2391673  31.6734083
  10.1471673   6.3791673  17.0464083  10.2501673   6.3211673  16.1824083
  10.8881673   6.0471673  17.3644083  10.2721673   6.3221673  16.9654083
   4.0671673  13.3441673  18.1534083   3.8621673  14.1771673  17.9944083
   3.2921673  12.9621673  18.2754083   3.9221673  13.4111673  18.1484083
   9.2491673   6.5251673  26.4024083   9.2471673   5.6621673  26.5264083
   9.3161673   6.8491673  27.2094083   9.2591673   6.4451673  26.5394083
   7.7201673   2.0311673  23.8384083   8.5751673   2.1301673  23.9834083
   7.3511673   2.5841673  24.4034083   7.7921673   2.1281673  23.9434083
   8.0241673   7.3111673  22.3294083   8.6901673   7.8521673  22.4894083
   7.6791673   7.6221673  21.5904083   8.0711673   7.4371673  22.2444083
   8.3371673  15.3771673  18.1364083   8.1631673  14.7231673  18.6864083
   9.0501673  15.1061673  17.7134083   8.4171673  15.2401673  18.1554083
   6.0121673  12.8301673  25.8274083   6.2181673  13.1311673  26.6194083
   5.9511673  13.5521673  25.3424083   6.0331673  12.9811673  25.8724083
   5.5461673  17.0441673  30.0734083   4.7931673  17.0261673  29.6324083
   5.7141673  17.8961673  30.1574083   5.4601673  17.1671673  30.0204083
  10.8241673  11.4691673  25.2854083  10.7921673  10.6071673  25.1504083
  10.1311673  11.7711673  24.8514083  10.7171673  11.3861673  25.2014083
   8.9291673  14.7291673  24.0824083   9.4561673  14.6461673  23.3914083
   8.5381673  13.9511673  24.1364083   8.9491673  14.6021673  23.9884083
   4.8021673   5.9811673  20.7834083   5.3531673   5.3741673  21.0834083
   4.3771673   6.2441673  21.4984083   4.8211673   5.9301673  20.9324083
   6.7721673   7.8121673  17.3454083   6.8401673   6.9621673  17.5264083
   5.9491673   7.8981673  17.0674083   6.6601673   7.6991673  17.3314083
   9.8511673  16.7671673  13.7634083  10.4881673  16.6331673  14.3444083
   9.5101673  15.9731673  13.6464083   9.8951673  16.6301673  13.8314083
  10.0461673   9.1851673  30.4964083  10.6801673   9.0151673  31.0704083
  10.4631673   9.5881673  29.8444083  10.2011673   9.2201673  30.4854083
   5.9261673  13.0321673  16.0854083   5.6751673  12.9041673  16.9114083
   5.6091673  12.3371673  15.6644083   5.8421673  12.9111673  16.1454083
  10.6711673   3.7491673  31.2344083  10.4751673   4.3931673  31.7894083
   9.9491673   3.2591673  31.2264083  10.5361673   3.7721673  31.3154083
  10.5701673   4.6901673  24.2054083   9.7371673   4.9401673  24.1334083
  10.5141673   3.8501673  24.4344083  10.4391673   4.6031673  24.2284083
   7.4571673   9.2961673  31.8514083   8.3281673   9.2601673  31.8154083
   7.2381673   9.7161673  31.1194083   7.5541673   9.3521673  31.7384083
   2.8121673  11.2401673  15.5154083   3.5291673  10.8931673  15.1594083
   2.7781673  12.0401673  15.1674083   2.9131673  11.3071673  15.4114083
   4.0301673   6.7971673   4.4251673   3.5061673   7.3931673   4.7881673
   4.4271673   6.4291673   5.1091673   4.0111673   6.8311673   4.5801673
   3.5151673   5.8541673  10.5211673   2.6671673   5.7551673  10.3431673
   3.5441673   6.5991673  10.9751673   3.3941673   5.9501673  10.5621673
   6.2411673  16.1981673   6.5481673   6.9851673  16.6541673   6.5381673
   6.1201673  15.9841673   5.7111673   6.3331673  16.2341673   6.4231673
   5.4951673  13.3831673  10.2521673   5.4611673  13.7651673  11.0361673
   6.3491673  13.3411673  10.0811673   5.6161673  13.4331673  10.3431673
   3.9471673  16.5471673   7.7501673   4.7151673  16.4671673   7.3441673
   3.3641673  16.4261673   7.1121673   3.9741673  16.5171673   7.5961673
   5.7881673   3.3301673   7.6711673   5.6931673   3.6491673   8.4771673
   5.1951673   2.6911673   7.6331673   5.6861673   3.2821673   7.7851673
   6.4871673  10.0491673   5.8761673   5.9731673   9.6371673   6.4471673
   6.3611673  10.8931673   6.0571673   6.3931673  10.1131673   5.9871673
   9.5081673   3.5101673   8.8151673  10.2801673   3.2851673   9.1521673
   9.0331673   3.7271673   9.5151673   9.5521673   3.5091673   8.9681673
  11.9741673  14.9971673  10.2571673  11.2921673  15.3071673   9.8101673
  11.6051673  14.5391673  10.9021673  11.8181673  14.9751673  10.2861673
  12.1451673   6.2641673   7.5971673  12.3601673   5.4641673   7.3211673
  11.2951673   6.3241673   7.4081673  12.0511673   6.1551673   7.5281673
   6.2781673   3.7321673   2.3931673   6.6221673   3.8841673   3.1801673
   5.8251673   2.9941673   2.5061673   6.2621673   3.6451673   2.5261673
   9.8081673  15.3791673   8.3471673   9.1371673  15.8931673   8.5651673
   9.8711673  15.4791673   7.4831673   9.7181673  15.4701673   8.2521673
   7.5991673   5.0641673   4.9471673   6.9371673   5.3921673   5.4101673
   7.7861673   5.6981673   4.3781673   7.5291673   5.2061673   4.9311673
   7.1061673  10.9111673  10.3681673   7.5901673  11.6291673  10.4661673
   7.5001673  10.4841673   9.7171673   7.2361673  10.9541673  10.2861673
   2.3741673   4.5031673   4.1831673   2.8541673   5.2021673   4.3911673
   2.7471673   3.8561673   4.6341673   2.5001673   4.5111673   4.2801673
   5.5801673  14.6081673   4.2821673   4.9771673  14.3121673   3.7251673
   6.1251673  15.0601673   3.7731673   5.5711673  14.6311673   4.1241673
   5.5931673  11.4591673   3.6821673   4.7961673  11.6831673   3.9561673
   5.8511673  10.8651673   4.2671673   5.5131673  11.4041673   3.8091673
   8.8531673   9.4571673   8.5281673   8.9081673   9.5821673   7.6661673
   9.6061673   9.7771673   8.8301673   8.9721673   9.5221673   8.4451673
   5.0441673  14.8061673  12.8051673   5.2081673  15.0891673  13.6141673
   5.3071673  15.4671673  12.3001673   5.1071673  14.9461673  12.8501673
   4.5841673   9.2631673   8.1281673   4.4291673   9.8731673   8.7321673
   5.1181673   8.7051673   8.5341673   4.6401673   9.2711673   8.2771673
   8.1941673  11.9921673   4.6551673   7.7151673  12.2901673   3.9891673
   7.8381673  11.2161673   4.8331673   8.0711673  11.9211673   4.5831673
   9.1251673   8.9341673   5.7741673   9.1181673   8.1581673   6.1721673
   8.2841673   9.1681673   5.7671673   9.0001673   8.8541673   5.8321673
  10.3811673   9.0051673   3.2111673  10.0951673   9.4061673   3.9311673
  11.2411673   8.9431673   3.3381673  10.4661673   9.0551673   3.3361673
   8.0431673   2.9291673  11.7511673   7.5181673   3.3881673  12.2751673
   7.6821673   2.1341673  11.7451673   7.9121673   2.8791673  11.8271673
  11.5121673  14.6381673   3.7401673  11.8021673  14.8951673   2.9591673
  12.2071673  14.7341673   4.2591673  11.6581673  14.6901673   3.7011673
   6.5351673   6.4981673  11.8271673   6.6081673   6.6021673  12.6901673
   5.9011673   7.0561673  11.6061673   6.4521673   6.5961673  11.9221673
   8.8031673   6.8171673  10.1921673   9.1221673   7.6031673  10.3951673
   8.4331673   6.5471673  10.9351673   8.7961673   6.8931673  10.3321673
  11.5011673   7.3591673  12.9271673  11.4491673   7.0181673  12.1261673
  12.2381673   7.8261673  12.9051673  11.6021673   7.3781673  12.8051673
  11.0391673  11.0351673   9.1331673  11.6671673  10.4861673   8.8771673
  10.9781673  11.6001673   8.4711673  11.1231673  11.0381673   8.9971673
   2.6891673   8.6891673   5.9201673   3.1651673   9.0631673   6.5481673
   1.8661673   8.8231673   6.1791673   2.6381673   8.7641673   6.0511673
   4.4451673  10.9441673  11.5261673   5.2021673  11.2301673  11.2001673
   3.8981673  10.9961673  10.8481673   4.4761673  10.9941673  11.3771673
   8.3541673  13.4941673  10.0301673   8.7001673  13.7641673  10.7841673
   8.6481673  14.0761673   9.4501673   8.4491673  13.6201673  10.0561673
   5.6761673   4.2551673  10.1941673   5.0281673   4.7251673  10.5421673
   6.2411673   4.1661673  10.8531673   5.6641673   4.3111673  10.3431673
   5.3641673   5.7921673   6.4921673   5.6661673   6.2121673   7.1951673
   5.4001673   4.9521673   6.7241673   5.4141673   5.7301673   6.6301673
   2.7891673  15.9591673  10.4171673   3.2671673  15.3591673  10.0011673
   2.4381673  15.5161673  11.0821673   2.8081673  15.8051673  10.4541673
   2.8481673  11.1781673   9.4371673   2.0531673  11.1141673   9.7881673
   2.9191673  12.0251673   9.2421673   2.7411673  11.2931673   9.4601673
   3.3371673  13.8251673   8.5451673   4.0241673  13.7111673   9.0701673
   3.4711673  14.6161673   8.2011673   3.4581673  13.9251673   8.5721673
  11.5131673   6.4341673  10.3561673  10.6581673   6.3121673  10.4821673
  11.6661673   6.0391673   9.5931673  11.4091673   6.3571673  10.2621673
   6.0261673   7.0991673   8.9321673   5.7711673   6.3801673   9.3541673
   6.8471673   7.2151673   9.2021673   6.1101673   7.0101673   9.0341673
   3.9601673   8.2891673  12.1191673   4.2831673   8.9751673  11.6871673
   3.2561673   8.6121673  12.5211673   3.9031673   8.4381673  12.1141673
   7.0441673  16.6631673   3.0481673   6.5931673  17.3061673   3.4271673
   7.7521673  16.5841673   3.5531673   7.0821673  16.7461673   3.1791673
   3.7451673  11.7531673   5.9781673   3.0511673  12.1551673   6.3211673
   4.4221673  12.1861673   6.3171673   3.7421673  11.8761673   6.0791673
   9.1221673  14.3461673  12.5581673   9.8981673  13.9561673  12.6411673
   8.6531673  14.0101673  13.2131673   9.1671673  14.2391673  12.6671673
   9.2491673   6.5251673   7.3961673   9.2471673   5.6621673   7.5201673
   9.3161673   6.8491673   8.2031673   9.2591673   6.4451673   7.5331673
   7.7201673   2.0311673   4.8321673   8.5751673   2.1301673   4.9771673
   7.3511673   2.5841673   5.3971673   7.7921673   2.1281673   4.9371673
   8.0241673   7.3111673   3.3231673   8.6901673   7.8521673   3.4831673
   7.6791673   7.6221673   2.5841673   8.0711673   7.4371673   3.2381673
   6.0121673  12.8301673   6.8211673   6.2181673  13.1311673   7.6131673
   5.9511673  13.5521673   6.3361673   6.0331673  12.9811673   6.8661673
   5.5461673  17.0441673  11.0671673   4.7931673  17.0261673  10.6261673
   5.7141673  17.8961673  11.1511673   5.4601673  17.1671673  11.0141673
  10.8241673  11.4691673   6.2791673  10.7921673  10.6071673   6.1441673
  10.1311673  11.7711673   5.8451673  10.7171673  11.3861673   6.1951673
   8.9291673  14.7291673   5.0761673   9.4561673  14.6461673   4.3851673
   8.5381673  13.9511673   5.1301673   8.9491673  14.6021673   4.9821673
   4.8021673   5.9811673   1.7771673   5.3531673   5.3741673   2.0771673
   4.3771673   6.2441673   2.4921673   4.8211673   5.9301673   1.9261673
  10.0461673   9.1851673  11.4901673  10.6801673   9.0151673  12.0641673
  10.4631673   9.5881673  10.8381673  10.2011673   9.2201673  11.4791673
  10.6711673   3.7491673  12.2281673  10.4751673   4.3931673  12.7831673
   9.9491673   3.2591673  12.2201673  10.5361673   3.7721673  12.3091673
  10.5701673   4.6901673   5.1991673   9.7371673   4.9401673   5.1271673
  10.5141673   3.8501673   5.4281673  10.4391673   4.6031673   5.2221673
   7.4571673   9.2961673  12.8451673   8.3281673   9.2601673  12.8091673
   7.2381673   9.7161673  12.1131673   7.5541673   9.3521673  12.7321673
  80.2047105  90.7437665  83.3352985  90.0000000  90.0000000  90.0000000
